/*--------------------------------*- C++ -*----------------------------------*\
| =========                 |                                                 |
| \\      /  F ield         | OpenFOAM: The Open Source CFD Toolbox           |
|  \\    /   O peration     | Version:  v1812                                 |
|   \\  /    A nd           | Web:      www.OpenFOAM.com                      |
|    \\/     M anipulation  |                                                 |
\*---------------------------------------------------------------------------*/
FoamFile
{
    version     2.0;
    format      ascii;
    class       volVectorField;
    location    "0.00000026";
    object      U;
}
// * * * * * * * * * * * * * * * * * * * * * * * * * * * * * * * * * * * * * //

dimensions      [0 1 -1 0 0 0 0];


internalField   nonuniform List<vector> 
3500
(
(0.0003536873979308544 -2.302503828915597e-06 3.056179127136068e-18)
(0.0003281630564256875 -4.649419782047856e-05 3.717866245219287e-18)
(-4.310331772250401e-05 1.361351393549471e-05 3.621413398344517e-18)
(-0.0002094846522741238 0.000140492731673846 4.81000477140064e-19)
(-0.0001736708970360456 0.0001399302230756454 1.823212860855652e-19)
(-0.000181354845937057 0.000151442440346471 1.605674503502685e-19)
(-0.0001243774941869584 0.0001013164655774995 -9.934372976937268e-20)
(-0.0001021065526992586 8.078826466321029e-05 5.494878476572714e-19)
(-0.0001106768303217518 8.587720017101186e-05 -8.773504712293705e-20)
(-0.000138605922250472 0.0001064536647824466 -3.455571724068212e-19)
(-0.0001622893569673444 0.0001191006775835877 -5.920806795002958e-19)
(-0.0001818229071433847 0.0001205270604783613 -3.642080823820843e-19)
(-0.0001987232392079227 0.0001098415547069265 -5.889263810764114e-19)
(-0.0002386157172162694 9.962037856635717e-05 -6.332649970298e-19)
(-0.0002569336362717457 7.023801405562973e-05 -6.059940560868406e-19)
(-0.0002060849428411951 2.517542296483623e-05 -3.71973941416377e-19)
(-0.0003013975838377979 2.156021033854269e-06 -2.553879660311514e-19)
(-0.0004308334317924389 5.685505121567362e-07 -4.440433742121948e-19)
(-0.0004824471511401335 5.408419133026045e-07 -8.310657552781782e-19)
(-0.0005198628222777668 5.050532307113849e-07 -1.434613244785049e-18)
(-0.0005103286196794771 4.081158590893217e-07 -1.317611450223521e-18)
(-0.0004923331932829135 3.677690801250086e-07 -3.562257489913441e-19)
(-0.0004732466854236633 3.489235717411908e-07 -5.638376559765158e-20)
(-0.0004610119252250193 2.807774587329098e-07 -5.32372226229172e-20)
(-0.0004289504801714079 2.407912790544436e-07 -8.398474999609905e-20)
(-0.0004077201157217639 1.922080473310904e-07 5.09969309834236e-20)
(-0.0003671184420452149 1.099908137260815e-07 -2.396232732336843e-20)
(-0.0003352354343166535 1.068908586324374e-07 -1.231552581735034e-19)
(-0.0003095822446998654 8.34608933287578e-08 1.606713460318149e-19)
(-0.0002785596572500664 2.211767609586566e-08 1.81822777930153e-19)
(-0.0002447195390569053 5.625177497351521e-09 5.388078682435229e-19)
(-0.0002188473138505985 -9.088407415750957e-09 3.27750991029021e-19)
(-0.0001941252388354258 -2.962061391643194e-08 1.562463611180755e-19)
(-0.0001682620558269892 -4.790052149699183e-08 2.871269476781732e-19)
(-0.0001569784940748413 -4.739742268780189e-09 5.123277865758247e-19)
(-0.0001622258797545787 4.148433009941177e-10 1.271128987707046e-18)
(-0.0001455215741283267 -1.091971524358356e-07 6.675261478984526e-19)
(-0.0001032114099387415 -1.25200520680433e-07 -6.344956697125784e-20)
(-9.985723207841318e-05 -7.715802181063865e-09 -3.380520606464802e-19)
(-0.0001186088512497704 -2.053393269956124e-08 -1.092846451473966e-19)
(-0.0001040366305211273 -1.527653335091864e-07 -8.829090683245979e-19)
(-6.797294587031606e-05 -1.759715205495347e-07 -7.801909700921825e-19)
(-4.995983764762901e-05 -1.078764657015309e-07 1.609300047227625e-19)
(-3.144924066921571e-05 -1.343172296396062e-07 9.34974769722379e-20)
(-1.863916863117012e-05 -1.529929578647352e-07 3.350168285310182e-19)
(4.411186545401779e-06 -7.453610719382072e-08 -1.691598154600832e-19)
(-2.633749932563884e-05 4.41938460585542e-08 -1.97648101193385e-19)
(-7.220428092111107e-05 -3.767357999306636e-08 5.92883268369016e-20)
(-6.516392533373744e-05 -2.505777492503093e-07 -1.319775240146281e-19)
(-1.910531125224998e-05 -2.344468964050684e-07 -2.499586550146817e-20)
(-2.419286718484735e-05 -2.700819926143201e-09 1.735823110516528e-19)
(-7.454488267323231e-05 -6.053191635434436e-08 -1.176860830045068e-18)
(-8.8252466714801e-05 -2.448912077250852e-07 -2.086987576827452e-18)
(-7.517331157730384e-05 -6.177348888247659e-07 -1.349472917748911e-18)
(-8.54694004263139e-05 -1.027555910088059e-05 -1.818530508483408e-18)
(-4.323857498720625e-05 -1.147301275112913e-05 -1.08142031776403e-18)
(-3.184071683055346e-05 -1.287884006548015e-05 1.073089977699317e-18)
(-1.428760231795146e-05 -7.374408488282663e-06 4.91882368430601e-20)
(1.666715424171637e-05 1.143775764235387e-05 2.428726292742561e-18)
(7.06153135700374e-05 5.115498973328855e-05 9.388338755398538e-19)
(0.0001557108514515717 0.000116941622021324 -2.502202292935252e-19)
(0.0002425165249266858 0.0001843499684129816 -1.00698473458385e-18)
(0.0003254556639390573 0.000253036107808644 -2.091129798347511e-18)
(0.0003895114667356791 0.0003129538923673794 -2.460967376092473e-18)
(0.000534674961517484 0.0004414139163504203 -2.776257849607007e-18)
(0.0008066071321015273 0.0006329172804034931 -9.508461551674675e-19)
(0.001299468691299862 0.0008564211162327091 -1.389427289589764e-18)
(0.00182690336688424 0.0007606235154139108 -4.84027023419343e-19)
(0.001327341869359386 0.0001848072788548198 -1.143589346233814e-19)
(0.0003361835899990427 2.971598273339927e-06 1.580359237606569e-18)
(0.001253877745801102 -7.331369286256193e-06 9.810375484786018e-18)
(0.00111051024984784 -0.0001487050592314599 1.232863463343278e-17)
(-3.670751394630785e-05 2.408682958751445e-05 1.119434548641656e-17)
(-0.000632897537133804 0.0004371144459198014 1.595159009425319e-18)
(-0.0005387084945290592 0.0004408209868024057 4.737427477115173e-20)
(-0.0005571241315386026 0.0004750028922863606 5.240888588070262e-19)
(-0.0003902099401977576 0.000320865691281605 -1.142804674404808e-18)
(-0.0003229625978727267 0.0002571777719836902 1.373816455144241e-18)
(-0.0003515606682739847 0.0002743456974728301 1.22060455058301e-19)
(-0.0004439035448878228 0.0003417302807977353 -1.375721152243713e-18)
(-0.0005165732771240929 0.0003810012887030213 -1.199235619037132e-18)
(-0.000575555273569079 0.0003843413149065339 -7.635145035899122e-19)
(-0.00062690544676748 0.0003498803447781277 -1.885301547793119e-18)
(-0.0007507445316208921 0.0003167394090344186 -2.235744548343983e-18)
(-0.0008161456091072987 0.0002233530457970378 -1.779114755481318e-18)
(-0.0006765241546835975 8.278156726007221e-05 -1.37240962725354e-18)
(-0.0009746842456952659 1.077662400015062e-05 -7.861072923282679e-19)
(-0.001350102474717402 4.024123164809741e-06 -1.261910927532504e-18)
(-0.001491410258459235 2.008935191763451e-06 -2.502111024241624e-18)
(-0.001596205017554914 6.596011894861197e-07 -4.22979005228699e-18)
(-0.001560082190121469 -6.34084373382149e-07 -3.65293607576869e-18)
(-0.001501864858706523 -7.935387901053643e-07 -9.24763726107199e-19)
(-0.001439371821998644 -6.5389439793873e-07 -1.840058970303466e-19)
(-0.00140220267353661 -9.833841887407778e-07 -2.4311290401894e-19)
(-0.001301760813883856 -1.130857399976452e-06 -2.211359244397787e-19)
(-0.001235155156059259 -1.321793644866605e-06 1.671408506740712e-19)
(-0.001112318771879934 -1.633231904799952e-06 -6.347409031794873e-20)
(-0.001016052169595534 -1.233086851934362e-06 -2.560925275167263e-19)
(-0.0009342410014170902 -1.22467584351398e-06 6.574478790487997e-19)
(-0.0008397396411506596 -1.452786347038338e-06 5.824458171265302e-19)
(-0.0007378284904725953 -1.298953445572915e-06 1.656911429275296e-18)
(-0.0006591483124924669 -1.11794078100021e-06 6.256203010137197e-19)
(-0.0005838954385580617 -1.096148761587932e-06 4.968293553582712e-19)
(-0.0005079184391167317 -8.583898195694718e-07 8.270706049465383e-19)
(-0.0004777202461127249 -1.438698209612631e-07 1.668102127814791e-18)
(-0.0004890917884854087 -1.990407336091877e-07 4.039957104050952e-18)
(-0.0004320166246775905 -1.316362555685572e-06 2.17483452389888e-18)
(-0.0003071310384489022 -1.065594134816931e-06 8.126762350824476e-20)
(-0.0003036491305310119 3.390454627797202e-07 -8.245662478996457e-19)
(-0.0003539689147528414 1.409113356704623e-07 -3.521752163085832e-19)
(-0.0003003574803314213 -1.138476745240047e-06 -2.100417827628191e-18)
(-0.0001952821896255665 -1.273182172348329e-06 -2.45242407316253e-18)
(-0.0001426653815031315 -7.540149872860473e-07 8.06213524124561e-19)
(-7.938355134053994e-05 -7.133390147877087e-07 5.846806676977015e-19)
(-4.148189693470734e-05 -8.043988995745271e-07 1.07869393885754e-18)
(2.374493682892008e-05 1.444905580839687e-07 -8.289957352982764e-19)
(-7.784033850773457e-05 1.683981337104756e-06 -9.232169243718162e-19)
(-0.0002129150909732433 9.11479654050966e-07 1.926683397173695e-19)
(-0.0001799904977969006 -1.175558223598353e-06 -4.259397429339033e-19)
(-4.50944003681483e-05 -1.026836242372125e-06 -9.960154663239626e-20)
(-7.058697086572847e-05 1.252149789895224e-06 2.956463052148249e-19)
(-0.0002171282961739932 1.495353138882803e-06 -3.476784454305827e-18)
(-0.0002562104892641265 -9.58222485943692e-08 -5.962528157912808e-18)
(-0.0002193865346352663 -1.274998096693092e-06 -4.077364871917367e-18)
(-0.0002511412060312757 -3.110087494132937e-05 -5.681070759702138e-18)
(-0.0001184773332890646 -3.368167221986136e-05 -4.528738645602654e-18)
(-8.885348004039091e-05 -3.797615689154558e-05 2.121031956308354e-18)
(-3.451159537781474e-05 -2.030984089372703e-05 -1.051979992209103e-18)
(6.215124761871544e-05 3.924709764108857e-05 5.498714821012981e-18)
(0.0002262588491463752 0.0001627519889516323 9.997975394287488e-19)
(0.0004855482204799197 0.0003678711014929913 -4.965813053267175e-18)
(0.0007481074660968746 0.000577570034558463 -3.043096820045529e-18)
(0.0009972839363707696 0.0007911865812170536 -5.050825122518738e-18)
(0.001186104880376265 0.0009759239469672931 -7.477423335425246e-18)
(0.001614127478167914 0.0013703115732846 -7.817208997665894e-18)
(0.002400574684127589 0.001947023788045238 -3.76042285310257e-18)
(0.003827855353314861 0.002610537846963791 -4.451698074383468e-18)
(0.005415524861591602 0.002324563897240474 -1.36582850997937e-18)
(0.004178564696028318 0.0006030117442930778 1.510057403261696e-19)
(0.001334511376141258 2.092627185396566e-05 4.896302019271084e-18)
(0.002516035065271809 -1.194860156094765e-05 1.815086253902174e-17)
(0.002141632929036861 -0.0002754933093017107 2.329538707677799e-17)
(0.0001088541621169998 -1.542394112021248e-05 1.971732460583869e-17)
(-0.001096140272479558 0.0007627074322561584 2.384750897464715e-18)
(-0.0009594171296270646 0.0007847189034936603 -6.695712367921194e-19)
(-0.0009855290240243944 0.0008385160630374534 1.023441208420169e-18)
(-0.0007026405456549141 0.0005748998944170058 -5.011334598069497e-19)
(-0.0005847989008937511 0.0004651207190311838 2.582465217410431e-18)
(-0.0006379797809069796 0.0004991967617321095 1.603065696480501e-18)
(-0.0008115798265179973 0.000626557203210249 -2.354097510138645e-18)
(-0.0009393829840319805 0.0006941978302247255 -1.739346427029091e-18)
(-0.001041961785809059 0.0006968414556342255 -1.712186510986304e-18)
(-0.001130091142870028 0.0006328449286070623 -3.445837461993865e-18)
(-0.001348008381444065 0.0005710136385076851 -3.951202726236798e-18)
(-0.001476675098774774 0.0004031904361365587 -3.787456355987918e-18)
(-0.00126493141859895 0.0001562911554079921 -2.491722127129181e-18)
(-0.001796288614992799 2.754462616185341e-05 -1.402621753183237e-18)
(-0.002413290391182181 1.277448952808766e-05 -1.988224226939486e-18)
(-0.002626687977549019 6.19043704934231e-06 -4.282730173965317e-18)
(-0.002789954896737761 1.72409688016298e-06 -7.018206335135033e-18)
(-0.002716701332437473 -2.560277655168185e-06 -5.694973331711304e-18)
(-0.002609163701803115 -2.989841878435959e-06 -1.428829883636527e-18)
(-0.002492146927920983 -2.438264672593725e-06 -3.478745834853093e-19)
(-0.002428027189138496 -3.468140564866355e-06 -5.644759743110719e-19)
(-0.002248534666794948 -4.047583444837924e-06 -4.31583084263221e-19)
(-0.002128600569331552 -4.66226888963841e-06 3.093541593997223e-19)
(-0.001918116827507525 -5.596259926787058e-06 3.315733372993904e-20)
(-0.001752160277324752 -4.332024834501235e-06 -2.659312307864787e-19)
(-0.001603443730760521 -4.327447802860727e-06 1.260725852595389e-18)
(-0.001439783641179515 -4.942132732072294e-06 1.04988024808303e-18)
(-0.001265105331892103 -4.432327635071059e-06 2.821790564039877e-18)
(-0.001128836314036335 -3.821239670094431e-06 1.108206345287556e-18)
(-0.0009984970811774642 -3.685793568672519e-06 9.016558221396966e-19)
(-0.0008719099757150662 -2.727900230679778e-06 1.401922471837459e-18)
(-0.0008274009046358118 -4.761923209474165e-07 2.928788770442807e-18)
(-0.000838323284171572 -9.405804303356319e-07 6.695976394789817e-18)
(-0.0007276829609577424 -4.492717192225444e-06 4.141939941634438e-18)
(-0.0005181096526094451 -3.222774493904815e-06 2.686517572917081e-19)
(-0.0005247095087199637 1.120262663191821e-06 -1.465155290292094e-18)
(-0.0005995990883821241 1.219035470364334e-07 -6.403532044202379e-19)
(-0.000488890557987771 -3.966813871404307e-06 -3.406667481308748e-18)
(-0.0003157962186126067 -4.090704519151258e-06 -3.920004828214798e-18)
(-0.000228955675685229 -2.668831955090294e-06 1.25414850105618e-18)
(-0.0001057492722609415 -2.482253853406844e-06 1.527642501074445e-18)
(-4.218654665510774e-05 -2.575284267545977e-06 1.990202674204099e-18)
(6.130292310287171e-05 6.78321180224483e-07 -1.288357896358026e-18)
(-0.0001300859691012993 5.720813109742674e-06 -1.817147984172508e-18)
(-0.0003557432113934528 2.739475867016404e-06 3.699895925585012e-19)
(-0.000276296792439071 -4.072033024342032e-06 -7.883418865275735e-19)
(-5.259132746877978e-05 -3.014998752005941e-06 1.213398847977185e-19)
(-0.0001160336573328281 4.23221199201686e-06 5.001407030439466e-19)
(-0.0003571646710371501 4.860879827167176e-06 -6.923832648284459e-18)
(-0.0004198996666949462 -1.863419466758843e-07 -9.775692047306937e-18)
(-0.000361359618307247 -2.030500541027174e-06 -7.190272394695099e-18)
(-0.0004174383408620114 -5.298008103280575e-05 -9.839766231596378e-18)
(-0.0001799681526345455 -5.341865770649895e-05 -1.001376912819985e-17)
(-0.0001392557623511391 -6.076587856529248e-05 2.167368021858776e-18)
(-4.377749899368223e-05 -2.847374821263204e-05 -2.60280445904378e-18)
(0.0001284621700294956 7.812422298350702e-05 6.411826007323203e-18)
(0.000415289718922668 0.0002930342211042413 -1.911989769884405e-18)
(0.0008695193321259971 0.0006519475447931775 -7.989817830167965e-18)
(0.001327025411496723 0.001017976803117916 -2.64669670971774e-18)
(0.001756080864884554 0.001388193085422478 -9.073922492557239e-18)
(0.00208008292131835 0.001704906128666324 -1.32316173393706e-17)
(0.002812492557585717 0.002375228887993255 -1.378501686394686e-17)
(0.004128641542200476 0.003327897886302186 -7.947009764413175e-18)
(0.006487411260863188 0.0043981011516595 -8.133037999433997e-18)
(0.009164310260051574 0.003932116947034643 -3.161534603853435e-18)
(0.0074751742088758 0.001110176531551761 5.81008983661989e-19)
(0.002892556083566365 6.087806535655705e-05 8.788392464310054e-18)
(0.00427938990401016 -1.177671666530795e-05 2.835734616379007e-17)
(0.00351376833519193 -0.0004329507695297061 3.609242112318827e-17)
(0.0004842779141425452 -0.0001318109060123077 3.00547784478516e-17)
(-0.001581173899820425 0.001111687001699398 4.371859153110749e-18)
(-0.001434961658510805 0.001172237496572191 -7.235685855457011e-19)
(-0.001463365854800976 0.001240142486534488 2.262459788426434e-18)
(-0.001065954633502348 0.0008663173713416384 -3.2924164841765e-19)
(-0.0008927932320156268 0.0007087885085550262 3.193596547402064e-18)
(-0.0009741983117282148 0.0007649270420367602 3.052866476249094e-18)
(-0.001252372503099452 0.0009702196541282184 -2.047399149404982e-18)
(-0.001436647026260003 0.001063773064255521 -2.23564552545714e-18)
(-0.001590190193160861 0.001064810938699686 -2.810741767800669e-18)
(-0.001715798337936917 0.0009644315858969487 -5.171388527500727e-18)
(-0.002027998228796837 0.0008628230151244219 -6.222675190004974e-18)
(-0.002220462212477808 0.0006046400408524232 -5.879161859829846e-18)
(-0.001998959550213236 0.0002510348803700327 -4.221074521351236e-18)
(-0.002788488819258949 5.60237637406897e-05 -2.389545503532593e-18)
(-0.003623780129124935 2.798004839188858e-05 -2.578111849807256e-18)
(-0.003868276625302871 1.297860228685108e-05 -5.92467717099367e-18)
(-0.004054638513655302 3.318477382190447e-06 -9.535807137224257e-18)
(-0.00395127314748381 -6.084986420024547e-06 -7.188553933961742e-18)
(-0.003783487775172265 -7.297166528948977e-06 -1.702685805572831e-18)
(-0.003596396877513417 -5.908307793957828e-06 -6.655496148608516e-19)
(-0.003503699325785006 -8.092422034742428e-06 -1.059852498579637e-18)
(-0.003235368987643007 -9.88850665008497e-06 -2.782756651697627e-19)
(-0.00304671464446702 -1.111981279605933e-05 3.341117468489101e-19)
(-0.002754940031937101 -1.291082741098881e-05 1.579081982817737e-19)
(-0.0025139064292327 -1.038067452305765e-05 -1.48515155893206e-19)
(-0.002287259342278024 -1.036297701521413e-05 1.586185584966596e-18)
(-0.002051962497197943 -1.156728386333267e-05 1.541945804633158e-18)
(-0.001802623651439971 -1.038280781889597e-05 4.094844788235731e-18)
(-0.001605681948637251 -8.995879822189744e-06 1.331350593908371e-18)
(-0.001417687567285623 -8.533428833553079e-06 1.392358306114556e-18)
(-0.00124344195852182 -5.926619591886704e-06 1.989743857807929e-18)
(-0.001193613332524267 -1.089800307753869e-06 4.745932272974066e-18)
(-0.001192344532395194 -2.756561193328582e-06 8.754313128556799e-18)
(-0.001011849201689138 -1.075219864368675e-05 5.959283726324643e-18)
(-0.0007178811398266001 -6.974531597876618e-06 5.437418486299e-19)
(-0.0007482959876477948 2.662119983152539e-06 -1.482436512742433e-18)
(-0.0008382366820492097 -3.512803243434594e-07 -9.68430734884673e-19)
(-0.0006457455914341734 -9.70369518790175e-06 -5.212947795736498e-18)
(-0.0004125809762261249 -9.224033547067519e-06 -5.906606995815099e-18)
(-0.0002955847794730324 -6.60125351190904e-06 1.814344447620208e-18)
(-9.134935360390914e-05 -5.926417852716465e-06 2.683621002255302e-18)
(-3.50746255014595e-06 -5.786903965674261e-06 3.120349281023598e-18)
(0.0001265540338037351 2.08370640033788e-06 -1.851113344542819e-18)
(-0.0001774499338882461 1.366918680995304e-05 -2.105540301446748e-18)
(-0.0004886057107617432 5.546786089860376e-06 5.887897468596825e-19)
(-0.0003306780066498412 -9.90806769651781e-06 -1.23975674208276e-18)
(-2.661827003424758e-05 -6.354204594915596e-06 3.914414538789167e-19)
(-0.0001541124707870442 1.015770453397796e-05 6.584262088810012e-19)
(-0.0004785717780739566 1.085676401220177e-05 -1.199076393084629e-17)
(-0.0005601931512039246 -4.141589511107072e-07 -1.254285258816148e-17)
(-0.0004847436443467496 -2.5631479943923e-06 -1.049079416566379e-17)
(-0.0005685143970233523 -7.475486171195992e-05 -1.334847227629269e-17)
(-0.0002105521948068166 -6.704767844321552e-05 -1.113733715055411e-17)
(-0.0001727755357257441 -7.747750677912308e-05 2.993679965376066e-20)
(-3.254475436440489e-05 -2.791445786728843e-05 -2.596932928201298e-18)
(0.0002243097531831908 0.0001318422362026434 4.354311937966017e-18)
(0.0006434081276377592 0.0004434342894398981 -2.252301489028727e-18)
(0.001307528348926132 0.0009664016798946723 -5.734907892630782e-18)
(0.001977731731097505 0.001503463972913354 -1.863187297503628e-19)
(0.00257670883351626 0.002024292267032685 -1.487027146569562e-17)
(0.003052047035829256 0.002485311057596839 -2.129599311966155e-17)
(0.004087148600410048 0.003421528803011457 -2.073237061190941e-17)
(0.005918336656193179 0.004721693513255588 -1.263894657448227e-17)
(0.009116685590927575 0.006117827947879716 -1.253437559824791e-17)
(0.01283944004172594 0.005492759817947542 -5.02936274636016e-18)
(0.01113016745963363 0.001697895915954345 7.14873517229328e-19)
(0.005192235824412893 0.0001318671995062963 1.394371250839143e-17)
(0.006662030938074759 -5.971605402563473e-07 4.19066727625283e-17)
(0.005362115670003526 -0.0006312012428943412 5.300492730796997e-17)
(0.001202410095883047 -0.0003540022806186738 4.392999037003421e-17)
(-0.002055483154959393 0.001471161681989166 5.194570241356641e-18)
(-0.001957849375170536 0.001598439161716927 3.516545081651969e-20)
(-0.001981869040158491 0.001671991305589382 2.363975501482069e-18)
(-0.001483659591863773 0.00119686852555693 -1.399961033552943e-19)
(-0.001251538752971646 0.0009914882330234638 3.898021131634151e-18)
(-0.001354884783464172 0.001069194627422744 4.242202960431404e-18)
(-0.001768812492989922 0.001376404819465125 -2.920385870045039e-18)
(-0.001989672570721833 0.001477019572176131 -3.08774428951652e-18)
(-0.002224623055916044 0.001492196380454678 -4.719190722793402e-18)
(-0.002389267471476597 0.001347351378725057 -6.705646343451192e-18)
(-0.002724130811241778 0.001164930608064712 -8.468311494036274e-18)
(-0.002970987081371937 0.000809378374061481 -8.20402037747298e-18)
(-0.002904307727957391 0.0003745064245898976 -6.52628885478146e-18)
(-0.003956162987750022 9.969560454570481e-05 -3.504601717587516e-18)
(-0.004971481297978569 4.975304196669557e-05 -2.871054785832423e-18)
(-0.005166999575930124 2.044968762020732e-05 -7.16122837012439e-18)
(-0.00530465713951536 4.836329362116878e-06 -1.145922740642463e-17)
(-0.005208346690414667 -1.130351889535375e-05 -7.981000989593927e-18)
(-0.004970968289686507 -1.532146776729457e-05 -1.690024377902245e-18)
(-0.00468737524392882 -1.234725284300762e-05 -1.028611009431344e-18)
(-0.00455763062041549 -1.604825734448543e-05 -1.47034976141685e-18)
(-0.004197490490636118 -2.05312391451979e-05 -6.048660291601713e-19)
(-0.003912180025828669 -2.138539544366138e-05 7.790726120094073e-20)
(-0.003571773494145919 -2.406553690850009e-05 -1.578039109537136e-19)
(-0.003251224023022772 -2.08037609637413e-05 -1.807958592408582e-19)
(-0.002934494710252948 -2.038677370543106e-05 1.505630647717417e-18)
(-0.00263125085508552 -2.24288319873052e-05 1.906271969180498e-18)
(-0.002309548828157183 -2.008153323647521e-05 4.389949122886548e-18)
(-0.002051776048916938 -1.751316837427918e-05 1.724459783599584e-18)
(-0.001807164068088143 -1.63578047915538e-05 2.041758631209339e-18)
(-0.001590896921513512 -1.058638457550936e-05 2.670418821137362e-18)
(-0.001549078912820817 -2.274077864891754e-06 5.999420395135204e-18)
(-0.001516557838634965 -6.636580134491116e-06 1.065451463700131e-17)
(-0.001251374920790181 -2.174595305854671e-05 7.358418345000191e-18)
(-0.0008672743032797257 -1.329410418491925e-05 9.514191521450715e-19)
(-0.0009346667241553197 5.514809493327707e-06 -1.55662887486923e-18)
(-0.001034648523956065 -2.132697499952565e-06 -9.547693380651617e-19)
(-0.0007330297122471497 -1.945603002750779e-05 -6.3335707672692e-18)
(-0.0004583798180914666 -1.721384094531663e-05 -6.851303473145315e-18)
(-0.000321439908953181 -1.370918023156787e-05 1.505364535435329e-18)
(-7.142541359007719e-06 -1.204722347739447e-05 3.12113985287698e-18)
(0.000100925872803243 -1.03995761632681e-05 4.533612994368423e-18)
(0.0002213954899001638 6.459125668584371e-06 -1.627106938999985e-18)
(-0.0002090304175537809 2.800215016272166e-05 -2.50685148066795e-18)
(-0.0005913274233549198 8.735068736624318e-06 8.487630456172481e-19)
(-0.0003075057823232634 -1.994722366663795e-05 -8.147345480137199e-19)
(5.105977368718557e-05 -1.078606027947922e-05 -1.336115948820476e-19)
(-0.0001736997252297703 2.112643651331298e-05 -6.117379499813693e-20)
(-0.0005541072056512121 2.014232132723525e-05 -1.848041475697287e-17)
(-0.0006456553168349445 -7.73087565329464e-07 -1.49691953384628e-17)
(-0.0005617261301145928 -2.486407787449104e-06 -1.305314090483927e-17)
(-0.0006782163584870232 -9.440005017752003e-05 -1.976118523984601e-17)
(-0.0001867371450129887 -6.960900053438585e-05 -1.007819872697967e-17)
(-0.0001735489482241621 -8.172986060262778e-05 3.853819044168987e-19)
(1.311537365724214e-05 -1.21830129002298e-05 -5.99923907091888e-18)
(0.0003570171252769951 0.0002020789524449294 1.34505357255485e-17)
(0.0009154379022140788 0.0006143354019106181 1.633268431239262e-18)
(0.001788712949319118 0.001298981601714779 -3.2519498329433e-18)
(0.002694531366063263 0.002028247106838623 2.881004133091243e-18)
(0.003388569407016339 0.002641709924705146 -1.933314507357481e-17)
(0.004066061091912352 0.003285352412571461 -2.948564715757358e-17)
(0.005355362374534053 0.004436451003158033 -2.590817376564331e-17)
(0.00766014178048801 0.006037031453232246 -1.718459340997533e-17)
(0.01151925527693506 0.007634875594420317 -1.731088065746609e-17)
(0.01616103712617041 0.006876325444617121 -5.638763540754482e-18)
(0.01494956254976759 0.002348209630664387 2.645174989716638e-18)
(0.008299873681051669 0.0002455350457989004 2.170513269992521e-17)
(0.009683563420148955 2.794669130354489e-05 6.187033218771851e-17)
(0.007863249236280881 -0.0008711607288886352 7.600315078850188e-17)
(0.002312464964179651 -0.0006699527930760909 5.988147109237823e-17)
(-0.002463044988868617 0.001818580818063491 9.196231890034657e-18)
(-0.002509526985696412 0.002050179203511277 9.104234865399952e-19)
(-0.0025221381891606 0.002116917250888248 3.498588843491962e-18)
(-0.00195802203770701 0.001566925499279704 8.882836885441353e-19)
(-0.001664256627999633 0.00131449550632594 4.901514334920928e-18)
(-0.001758548123495874 0.001396310008275434 4.670833186427131e-18)
(-0.002317824287865014 0.001813522084397101 -4.163381051443269e-18)
(-0.002530696279146832 0.00188715112469092 -3.55193864115864e-18)
(-0.002937842128699247 0.001977085247661142 -6.091996585575997e-18)
(-0.003146235130777872 0.001775541247976174 -9.497070624656236e-18)
(-0.003349450207600182 0.001439829303779367 -1.058081601217765e-17)
(-0.003692713697393836 0.001015706267511082 -1.077559022357855e-17)
(-0.003987792043608567 0.0005334854658125963 -9.702289106582497e-18)
(-0.005255434793201263 0.000159880341687147 -5.611757552693055e-18)
(-0.006368803645876979 8.078605476489938e-05 -2.178372371156492e-18)
(-0.006444496574580554 2.469776501704936e-05 -7.069288863117539e-18)
(-0.006474076516040702 5.470947979528279e-06 -1.278347953986678e-17)
(-0.006372878531841233 -2.021737971847988e-05 -8.034434120185723e-18)
(-0.006063972789369436 -3.080101563989863e-05 -1.552657752260417e-18)
(-0.00566003972947807 -2.373631828055056e-05 -1.525059266329971e-18)
(-0.00544050681931319 -2.947274879865688e-05 -2.329016731354365e-18)
(-0.005021254042266179 -3.669449441839107e-05 -7.478473772918289e-19)
(-0.004645741915929401 -3.586221291888616e-05 4.338792162267803e-20)
(-0.004287893365290846 -4.044340271297839e-05 -4.39504221546311e-19)
(-0.003899059137372075 -3.754506025656065e-05 -5.135891921659685e-19)
(-0.003468184639314931 -3.529315208959933e-05 1.392351801421957e-18)
(-0.003108053316563796 -3.811161160378122e-05 1.905159352658937e-18)
(-0.002721946058061676 -3.426659649536615e-05 4.818267296773529e-18)
(-0.002407569880397629 -2.996314066190896e-05 2.166192581782194e-18)
(-0.002113027704077493 -2.79338125060014e-05 2.96079971683941e-18)
(-0.001854241683990156 -1.788510406374939e-05 3.311075424564444e-18)
(-0.001818052072288538 -4.764368148852221e-06 6.903583294106159e-18)
(-0.001748006930882882 -1.440462109430872e-05 1.190189794350267e-17)
(-0.001398373659920529 -3.917677274422128e-05 9.336271127571697e-18)
(-0.000926007364374357 -2.265830216390893e-05 6.947526735391202e-19)
(-0.001047257183488081 1.019657297798319e-05 -1.63043890052074e-18)
(-0.001134944581565488 -8.654081265665999e-06 -5.483340044531803e-19)
(-0.000694582831281191 -3.272244965960122e-05 -6.450059761628844e-18)
(-0.0004117678180583831 -2.816298753664386e-05 -7.704912100405329e-18)
(-0.0002742897183890896 -2.578772819883258e-05 2.363437455170384e-18)
(0.0001752715444931545 -2.500866888699386e-05 2.604911119766589e-18)
(0.0003073574521571976 -1.553002679911079e-05 5.109977627655467e-18)
(0.0003244267348116904 1.674128778570057e-05 -8.480117271299401e-19)
(-0.0002121496665765311 4.997379854170801e-05 -2.14111671474191e-18)
(-0.0006334610738749111 1.025776723290408e-05 8.473339032747045e-19)
(-0.000160177205152406 -3.675491157523472e-05 -1.485623730472753e-18)
(0.0001816228288976732 -1.385153707160068e-05 5.962841688908719e-20)
(-0.0001657029977671758 3.830864212940041e-05 -7.018209390304336e-19)
(-0.0005403729655326077 3.280765693786718e-05 -2.755188254866941e-17)
(-0.0006259182463959685 -1.414175706637307e-06 -1.576109821240674e-17)
(-0.0005464984247241453 -1.388432570258382e-06 -1.203946553249631e-17)
(-0.0007080862052718633 -0.0001083448723005897 -2.75796946604463e-17)
(-9.746733597700218e-05 -5.965212320376457e-05 -9.425116079808633e-18)
(-0.0001249221240957656 -6.70926802275194e-05 6.128245999063229e-19)
(0.0001102058929341791 2.644448105786563e-05 -2.291913881759604e-18)
(0.0005210272091296235 0.0002816666613416636 1.08094822837451e-17)
(0.00124036549168327 0.0008089308864588595 -2.051026865402103e-18)
(0.002303168927171941 0.001639134585839642 -3.61482959346647e-18)
(0.003462652024841146 0.002578302354122638 1.005177926355588e-17)
(0.004124940385386202 0.003186993244376658 -1.475111686651071e-17)
(0.005057305239843449 0.004045598347358861 -3.36763184235627e-17)
(0.006536882642634693 0.005349212060423416 -3.19327507868031e-17)
(0.009230607199872017 0.007168832729221569 -2.345205278349804e-17)
(0.01353645348137574 0.008835147595783084 -2.196692669348698e-17)
(0.01885162995635214 0.007955886590211276 -3.447525915036352e-18)
(0.01862472127663931 0.003011725021350536 1.338232673208043e-17)
(0.01187357449742151 0.00040403470725321 3.489932441274371e-17)
(0.01314138579751275 8.99567734954638e-05 9.408958654545329e-17)
(0.01084008565589204 -0.001087652674338239 1.076975928463867e-16)
(0.003722174018456558 -0.001008230131576674 7.766923853122224e-17)