/*--------------------------------*- C++ -*----------------------------------*\
| =========                 |                                                 |
| \\      /  F ield         | OpenFOAM: The Open Source CFD Toolbox           |
|  \\    /   O peration     | Version:  v1812                                 |
|   \\  /    A nd           | Web:      www.OpenFOAM.com                      |
|    \\/     M anipulation  |                                                 |
\*---------------------------------------------------------------------------*/
FoamFile
{
    version     2.0;
    format      ascii;
    class       volScalarField;
    location    "0.00000026";
    object      V;
}
// * * * * * * * * * * * * * * * * * * * * * * * * * * * * * * * * * * * * * //

dimensions      [0 3 0 0 0 0 0];


internalField   nonuniform List<scalar> 
3500
(
2.459904961101887e-05
2.441093650683544e-05
2.296821410137378e-05
2.133307849353535e-05
2.095837474881895e-05
2.15816550883435e-05
2.287653073141457e-05
2.418325146468333e-05
2.536022616875989e-05
2.643782510601139e-05
2.774022284254452e-05
2.945339769381349e-05
3.156341151298509e-05
3.372640902315518e-05
3.548968829650607e-05
3.651541551366158e-05
3.668425957464297e-05
3.668073187117636e-05
3.66808344812223e-05
3.668076928022828e-05
3.668071717292038e-05
3.668081096611521e-05
3.668083848947864e-05
3.668071650472171e-05
3.668078290845774e-05
3.668079520030522e-05
3.668088471804205e-05
3.668067334929584e-05
3.66808294040966e-05
3.668149036565707e-05
3.668020211189537e-05
3.668112427819561e-05
3.668021026201604e-05
3.668065905318021e-05
3.668102888168166e-05
3.668102995054996e-05
3.668065771709356e-05
3.668021159810171e-05
3.668112441180415e-05
3.668020104302729e-05
3.668149036565643e-05
3.668078611492226e-05
3.668147419902155e-05
3.668039758122177e-05
3.668003029128229e-05
3.668087429671531e-05
3.668077502527189e-05
3.668116355911253e-05
3.668090970284297e-05
3.668091063811969e-05
3.668013423872779e-05
3.668055270076368e-05
3.66814222266208e-05
3.668421598615859e-05
3.651548285890451e-05
3.549025365988914e-05
3.372571847941132e-05
3.156238986158848e-05
2.945525484764479e-05
2.774059225711394e-05
2.64380191228482e-05
2.535947279268347e-05
2.4183371542139e-05
2.287689770337136e-05
2.158240316368063e-05
2.09584577281993e-05
2.133230920090128e-05
2.296707607321676e-05
2.44115247072529e-05
2.459905452834928e-05
2.980058630786613e-05
2.957304470610799e-05
2.782733913558158e-05
2.584913533222299e-05
2.53967123221396e-05
2.615227536126469e-05
2.772070740289072e-05
2.930345384502748e-05
3.072913511419667e-05
3.203451845674303e-05
3.361197104528787e-05
3.56865665265526e-05
3.824137404380236e-05
4.086015103409381e-05
4.299492792600751e-05
4.423676791054376e-05
4.444124361758358e-05
4.443697908923717e-05
4.443710340414575e-05
4.443702441133812e-05
4.443696128189347e-05
4.443707491494325e-05
4.443710826025908e-05
4.443696047235226e-05
4.44370409223152e-05
4.443705581422804e-05
4.443716410557223e-05
4.443690835023075e-05
4.443709709119695e-05
4.443789705505623e-05
4.443633791869809e-05
4.443745401558272e-05
4.44363477927948e-05
4.443689103009091e-05
4.443733908754956e-05
4.443733973503139e-05
4.443688941138529e-05
4.443634941149924e-05
4.44374541774532e-05
4.443633727121667e-05
4.443789705505565e-05
4.443704480703629e-05
4.443787682124828e-05
4.443657538267485e-05
4.443612926766197e-05
4.443715180358726e-05
4.443703153348792e-05
4.443750160549996e-05
4.443719453721968e-05
4.443719518472184e-05
4.443625633595997e-05
4.443676169558573e-05
4.443781482647032e-05
4.444119109334035e-05
4.423684615887156e-05
4.299559851671085e-05
4.085930581652852e-05
3.824012069706991e-05
3.568881329827704e-05
3.361246223029742e-05
3.203477430707698e-05
3.072819404119525e-05
2.93035671165591e-05
2.772113931816985e-05
2.615316904915908e-05
2.539678449011515e-05
2.584817614958767e-05
2.782595733999144e-05
2.95737493909794e-05
2.98005844988497e-05
3.610154601597357e-05
3.582638020169376e-05
3.371462269683463e-05
3.132210456313026e-05
3.077624804753737e-05
3.169228064958053e-05
3.359196658268172e-05
3.550893789766266e-05
3.723582092546781e-05
3.88171116641173e-05
4.072760215677715e-05
4.323960390740094e-05
4.633256846816032e-05
4.950272077418079e-05
5.208688893946896e-05
5.35901526630733e-05
5.383775739941823e-05
5.383260450159789e-05
5.383275491643783e-05
5.383265941057712e-05
5.383258292750821e-05
5.383272059709145e-05
5.383276079975358e-05
5.383258175061643e-05
5.383267961019266e-05
5.383269725993619e-05
5.383282845789468e-05
5.383251899544587e-05
5.383274726812524e-05
5.383371566202581e-05
5.383182790186586e-05
5.383317969189132e-05
5.383184123738094e-05
5.38324966388439e-05
5.383304104173145e-05
5.383304045340033e-05
5.383249683495262e-05
5.383184182571263e-05
5.383317969189115e-05
5.383182809797666e-05
5.383371526980432e-05
5.383268392441843e-05
5.383369095209724e-05
5.38321157921525e-05
5.383157589980649e-05
5.383281335758934e-05
5.383266843147947e-05
5.383323715228174e-05
5.38328651305669e-05
5.383286650336528e-05
5.383172984656455e-05
5.383234073095523e-05
5.383361603981912e-05
5.383769390610156e-05
5.359025022448947e-05
5.208770378494256e-05
4.950171004245014e-05
4.633108802964913e-05
4.324233723677931e-05
4.072817090154489e-05
3.881741487871323e-05
3.723470579205286e-05
3.550909587522763e-05
3.359248630549274e-05
3.169335730669885e-05
3.077634972325409e-05
3.132097270066129e-05
3.37129712745711e-05
3.582724549948784e-05
3.610155224555067e-05
4.373406183912189e-05
4.340146200427415e-05
4.084773324098351e-05
3.79551778207568e-05
3.729717535735809e-05
3.84079286758139e-05
4.070870816375992e-05
4.303034086993788e-05
4.512195451213412e-05
4.703740955992619e-05
4.935108600117312e-05
5.239236319042222e-05
5.613626356013705e-05
5.997321216324569e-05
6.310080764643895e-05
6.492020527261514e-05
6.522000452926126e-05
6.521378169595409e-05
6.521396369009985e-05
6.521384798210825e-05
6.521375579594167e-05
6.521392211126209e-05
6.521397058030612e-05
6.521375437010473e-05
6.521387245450117e-05
6.521389383765366e-05
6.521405278760846e-05
6.521367810288645e-05
6.521395537433135e-05
6.521512504642411e-05
6.521284248705389e-05
6.521447760452985e-05
6.521285864339986e-05
6.521365101724413e-05
6.521430962602685e-05
6.5214308913247e-05
6.521365125483566e-05
6.52128586433996e-05
6.521447831730971e-05
6.52128417742744e-05
6.521512575920405e-05
6.521387791889803e-05
6.521509606003614e-05
6.5213190323725e-05
6.52125378923696e-05
6.521403401798437e-05
6.521385891118037e-05
6.521454721938243e-05
6.52140967423786e-05
6.521409911834214e-05
6.521272273997094e-05
6.52134628433057e-05
6.521500553933243e-05
6.521992766285765e-05
6.49203218343057e-05
6.310180051867272e-05
5.997198287485247e-05
5.613444189185349e-05
5.239565776661514e-05
4.935177733593513e-05
4.70377801941144e-05
4.512060896410155e-05
4.303053915543663e-05
4.070935421756928e-05
3.840925152183119e-05
3.729731167316302e-05
3.795378442052315e-05
4.084571577333185e-05
4.340250548442132e-05
4.373406888278251e-05
5.297922759739698e-05
5.257738839231102e-05
4.949039650121233e-05
4.599487444659577e-05
4.520256870542338e-05
4.65496701893223e-05
4.933602581300024e-05
5.214753106154105e-05
5.46807803089868e-05
5.700093050203467e-05
5.980262882752315e-05
6.348415028602729e-05
6.801513905964896e-05
7.265816852598454e-05
7.644264667894342e-05
7.864418805074121e-05
7.900713847338407e-05
7.899962940732669e-05
7.899984932256797e-05
7.899970942698567e-05
7.899959802874632e-05
7.8999798948655e-05
7.899985795809441e-05
7.89995963013056e-05
7.899973878811611e-05
7.899976498224745e-05
7.899995697881272e-05
7.89995041893117e-05
7.899983924778399e-05
7.9001254322921e-05
7.899849296902111e-05
7.900047079271058e-05
7.89985125428813e-05
7.899947281356133e-05
7.90002664185554e-05
7.900026728210831e-05
7.899947079860292e-05
7.89985136942846e-05
7.900047194411402e-05
7.899849181761825e-05
7.900125547432403e-05
7.899974512053323e-05
7.90012192051101e-05
7.899891467062077e-05
7.899812480768833e-05
7.899993452674503e-05
7.899972238000784e-05
7.900055542088128e-05
7.900001051908361e-05
7.900001224622543e-05
7.899834904352172e-05
7.899924368422707e-05
7.900110924892128e-05
7.900704608413763e-05
7.864433025226922e-05
7.644384049761862e-05
7.265668330316872e-05
6.801295898110332e-05
6.348815581802493e-05
5.980348649992308e-05
5.700139528437787e-05
5.467913686722668e-05
5.214775136499056e-05
4.933680084927614e-05
4.655125853585935e-05
4.520273347952644e-05
4.599320122339933e-05
4.948794988106313e-05
5.257864300424259e-05
5.297922926784694e-05
6.417727346894095e-05
6.369207612076537e-05
5.996227116257872e-05
5.574039461172687e-05
5.478765089750321e-05
5.642175225474845e-05
5.979589019373329e-05
6.320031557577721e-05
6.626823693590937e-05
6.907846547097958e-05
7.24707842166411e-05
7.692654785380627e-05
8.240883074306569e-05
8.802586369072618e-05
9.260398313288337e-05
9.52672272133596e-05
9.570656223358949e-05
9.569750907855549e-05
9.569777411700138e-05
9.569760567585154e-05
9.56974703650645e-05
9.569771343635135e-05
9.569778492791894e-05
9.569746862096194e-05
9.569764089893252e-05
9.569767263384875e-05
9.569790454551864e-05
9.569735737347245e-05
9.569776191112119e-05
9.569947422135098e-05
9.569613260086166e-05
9.569852669652795e-05
9.569615771009135e-05
9.569731970962314e-05
9.569827874284579e-05
9.569827978906451e-05
9.569731831466301e-05
9.569615875630971e-05
9.569852669652756e-05
9.569613399581969e-05
9.569947422135066e-05
9.569764857083224e-05
9.569943062893383e-05
9.569664350401293e-05
9.569569039935791e-05
9.569787769295637e-05
9.569762102005743e-05
9.569862783093884e-05
9.569796975977695e-05
9.569797080603905e-05
9.569596102105332e-05
9.569704315931645e-05
9.569929601900699e-05
9.57064507730455e-05
9.526740079326734e-05
9.260542761884035e-05
8.802407334440772e-05
8.240618719593812e-05
7.693136400217592e-05
7.247178589483572e-05
6.907898821756817e-05
6.626625587729862e-05
6.320059157274537e-05
5.979682169641246e-05
5.642366571698428e-05
5.47878470095093e-05
5.57383885390516e-05
5.995932929127294e-05
6.369360496465365e-05
6.417728431841428e-05
7.774004370273862e-05
7.715462001359037e-05
7.265077898226207e-05
6.755500207647155e-05
6.641123493469195e-05
6.839400275395345e-05
7.247949736028303e-05
7.660142599312606e-05
8.031656548460969e-05
8.372021133787491e-05
8.782713522435622e-05
9.321880788460917e-05
9.985028907595157e-05
0.0001066435449108535
0.0001121799511576123
0.0001154007064766035
0.0001159324016641884
0.0001159214980487633
0.0001159218183051857
0.0001159216146565768
0.0001159214511463209
0.0001159217452114015
0.0001159218309803977
0.0001159214494558023
0.0001159216569078027
0.0001159216962005491
0.0001159219759004288
0.0001159213142538821
0.0001159218039399269
0.0001159238716910127
0.0001159198354780762
0.0001159227279635555
0.0001159198642085734
0.0001159212690455945
0.0001159224292508407
0.0001159224292508417
0.0001159212673555617
0.0001159198650535882
0.000115922728386062
0.0001159198367455995
0.0001159238716910131
0.0001159216674700454
0.0001159238188775942
0.0001159204523388391
0.0001159192997387233
0.0001159219433678042
0.0001159216340915233
0.0001159228488006613
0.0001159220549093061
0.0001159220565993891
0.0001159196271818869
0.0001159209356872835
0.0001159236570614433
0.0001159322666822592
0.000115400913647155
0.0001121817037862754
0.0001066413807105521
9.984709720239195e-05
9.32246513448266e-05
8.782837379852988e-05
8.372087928746356e-05
8.031418809491622e-05
7.660176895788217e-05
7.248064221031253e-05
6.839633105482433e-05
6.641146866818979e-05
6.755255674935741e-05
7.264720639389908e-05
7.715645617747252e-05
7.774005010785178e-05
9.416584921168904e-05
9.346013393554019e-05
8.802550893267686e-05
8.187993957259711e-05
8.050966198071994e-05
8.291624978482115e-05
8.786246872914451e-05
9.285244626818087e-05
9.73509019797106e-05
0.000101473006682269
0.0001064443003774023
0.0001129667691289876
0.000120985632889358
0.0001291983318315514
0.0001358910158753688
0.0001397844710103763
0.0001404277968539111
0.0001404146802289832
0.0001404150677167229
0.0001404148215026635
0.0001404146244292199
0.0001404149791615619
0.0001404150830730693
0.0001404146223811204
0.0001404148726911791
0.0001404149197835603
0.0001404152581358189
0.0001404144585802455
0.0001404150492890348
0.0001404175477722354
0.0001404126741687665
0.0001404161667217008
0.0001404127069290408
0.0001404144032972757
0.0001404158053348644
0.0001404158053348658
0.0001404144012497536
0.0001404127100003171
0.0001404161677454589
0.0001404126731450091
0.0001404175477722347
0.0001404148839519997
0.000140417485834835
0.0001404134194651248
0.0001404120225463289
0.0001404152187216354
0.0001404148455605229
0.0001404163136310741
0.0001404153518097425
0.0001404153574404781
0.0001404124213002968
0.0001404139994244804
0.0001404172897900081
0.0001404276345174361
0.0001397847216561474
0.0001358931291433068
0.0001291957105232206
0.0001209817599994752
0.0001129738076566219
0.0001064457946868866
0.000101473790047193
9.73480063538712e-05
9.285284927197794e-05
8.78638256513899e-05
8.291904779960954e-05
8.05099358287518e-05
8.187699213420834e-05
8.802120735695457e-05
9.346235574672073e-05
9.416586436926834e-05
0.0001140576043992352
0.0001132077959961004
0.0001066557440914007
9.925145970754784e-05
9.761396279996687e-05
0.0001005360959659431
0.0001065234834183612
0.0001125633124027253
0.0001180095880399668
0.0001230014270929845
0.0001290178986258817
0.0001369058180281586
0.0001465983507992911
0.0001565225494506131
0.0001646091518479803
0.0001693135971483431
0.0001700917745827106
0.0001700760208497224
0.0001700764890618413
0.0001700761907666527
0.0001700759538671779
0.0001700763811545991
0.0001700765076664134
0.0001700759507657232
0.0001700762534030711
0.0001700763092165145
0.000170076718519471
0.0001700757535567179
0.0001700764648756591
0.0001700794831749716
0.0001700736003750466
0.0001700778149553017
0.0001700736382045562
0.0001700756865798697
0.0001700773789856235
0.0001700773789856259
0.0001700756847193965
0.0001700736419254922
0.0001700778155754568
0.000170073600375047
0.000170079482554815
0.0001700762651854259
0.000170079408136098
0.0001700744996012592
0.0001700728133970722
0.0001700766707680705
0.0001700762199134295
0.0001700779910795959
0.0001700768313878636
0.0001700768382096526
0.0001700732946380715
0.0001700751997574921
0.0001700791706221111
0.000170091576519268
0.0001693139011645673
0.000164611696504783
0.0001565193835480213
0.0001465936909935784
0.0001369143109602125
0.0001290196944281697
0.0001230024012344142
0.000118006120995056
0.000112563808742784
0.0001065251576066706
0.0001005394958213993
9.761430652293615e-05
9.924790645352565e-05
0.0001066505553690922
0.000113210473302157
0.000114057608157342
0.0001381443857286445
0.0001371224408397525
0.0001292316503089745
0.0001203216973125449
0.0001183710542396492
0.0001219208105704636
0.0001291672139842927
0.0001364763304228129
0.0001430691740632066
0.0001491136817670935
0.0001563934217055372
0.0001659289609224169
0.0001776386518802144
0.0001896243600301946
0.0001993895475325122
0.000205070633605702
0.0002060116121107701
0.0002059927287578105
0.0002059932937565061
0.0002059929331148673
0.0002059926483585652
0.0002059931637750965
0.0002059933155449704
0.0002059926438498064
0.000205993009751856
0.0002059930766201307
0.0002059935694966295
0.0002059924071795822
0.0002059932637028048
0.0002059969061805289
0.0002059898083077936
0.0002059948910969403
0.0002059898563933009
0.0002059923282892846
0.0002059943651616248
0.0002059943674156342
0.0002059923230299271
0.0002059898586473096
0.0002059948941022852
0.0002059898083077931
0.0002059969031751836
0.0002059930262805792
0.0002059968122635121
0.0002059908924858771
0.0002059888631269212
0.0002059935123957509
0.0002059929691783648
0.0002059951029737057
0.0002059937069911412
0.0002059937152559211
0.000205989440904372
0.0002059917384906477
0.0002059965297674663
0.0002060113707524698
0.000205070997672927
0.0001993926272066513
0.0001896205519710853
0.0001776330363439835
0.0001659392217248435
0.0001563956068757978
0.000149114833341475
0.0001430649678539975
0.0001364769285545799
0.0001291691927647922
0.0001219248859113249
0.0001183714685166644
0.0001203174156820979
0.000129225384414715
0.0001371256728464271
0.0001381444006298568
0.0001673077006471538
0.0001660807665421398
0.0001565901202146224
0.0001458843351102273
0.0001435698536438737
0.0001478844388066019
0.0001566526804346088
0.0001654956839981384
0.000173475060323007
0.0001807933952726507
0.0001895992389093565
0.0002011211419099471
0.000215259192636867
0.0002297248126676687
0.0002415087099181587
0.0002483643863519059
0.0002495017580038456
0.0002494791780510307
0.0002494798571024325
0.0002494794247262658
0.0002494790806463088
0.0002494797014466459
0.0002494798834994905
0.0002494790751839669
0.0002494795166636348
0.0002494795967662875
0.0002494801902587157
0.0002494787893615816
0.0002494798225118292
0.0002494842099869271
0.0002494756571412906
0.0002494817823113941
0.0002494757217700679
0.0002494786937838016
0.0002494811487672717
0.0002494811505878024
0.0002494786901427394
0.0002494757181290089
0.0002494817859524513
0.000249475657141293
0.0002494842072561319
0.0002494795357784988
0.0002494840962038649
0.0002494769679222367
0.0002494745184004023
0.0002494801247203507
0.0002494794638669262
0.0002494820417367229
0.0002494803541063163
0.0002494803650295822
0.0002494752183938103
0.0002494779810472124
0.0002494837585022121
0.0002495014683003683
0.00024836482568898
0.0002415124145729337
0.0002297202107146771
0.0002152524063130805
0.0002011334870848905
0.0001896018534042373
0.0001807948066649058
0.0001734700032613196
0.0001654964064502037
0.0001566550907158955
0.0001478893516647244
0.000143570350592804
0.00014587917866906
0.000156582583545032
0.000166084662882622
0.0001673077202566666
0.0002026127167127904
0.0002011426736006246
0.0001897461568303843
0.0001769062321970377
0.0001741737609698844
0.0001794214926903566
0.0001900283437742266
0.0002007239890130701
0.0002103794382110143
0.0002192388255270851
0.0002298871318860559
0.0002438012259814318
0.0002608585930388713
0.0002783027854295846
0.0002925104624242954
0.0003007765016494054
0.0003021505689818769
0.0003021236510074936
0.0003021244670822527
0.0003021239476575908
0.000302123533000756
0.0003021242796034633
0.0003021245001654846
0.0003021235263831554
0.0003021240579391725
0.0003021241549859708
0.0003021248685043855
0.0003021231823068596
0.000302124429585718
0.0003021297010207179
0.0003021194173112336
0.0003021267829836885
0.0003021194923023549
0.0003021230654089257
0.0003021260231471367
0.0003021260220443282
0.0003021230654089215
0.0003021194878911092
0.0003021267829836874
0.0003021194184140469
0.0003021297010207175
0.0003021240822003574
0.0003021295664778232
0.0003021209899192611
0.0003021180476204854
0.0003021247857942169
0.0003021239939748749
0.0003021270983874241
0.0003021250648046507
0.0003021250791413195
0.0003021188857566177
0.0003021222096288164
0.0003021291617524123
0.0003021502219079745
0.0003007770287611903
0.0002925149239489003
0.0002782972642849068
0.0002608504386348219
0.0002438160856134167
0.0002298902788851278
0.0002192405116880047
0.0002103733493032141
0.0002007248480254297
0.0001900312409497867
0.0001794274211842621
0.000174174355738482
0.0001769000077950176
0.0001897370746376099
0.0002011473588353249
0.0002026127345897463
0.0002453458516588362
0.000243588946337391
0.0002299309921233432
0.000214566521187699
0.0002113611337552471
0.0002177489825987872
0.0002305758274397003
0.0002435076257453519
0.0002551881673318306
0.0002659113224931335
0.0002787823731326308
0.0002955736174646746
0.0003161344676831126
0.0003371492425494556
0.0003542611970339959
0.0003642173067215672
0.0003658763208453004
0.000365844345811922
0.0003658453291670637
0.000365844703877798
0.0003658442055177848
0.0003658451033671431
0.0003658453679119275
0.0003658441988366396
0.0003658448361505873
0.0003658449523896328
0.0003658458101564789
0.0003658437859867251
0.000365845286410877
0.0003658516141124195
0.0003658392606646932
0.0003658481122319865
0.0003658393475102547
0.0003658436456977269
0.0003658471956772445
0.0003658471970133305
0.0003658436416894645
0.0003658393501824215
0.0003658481122319881
0.000365839260664698
0.0003658516154485014
0.0003658448682160766
0.0003658514524460696
0.0003658411498898009
0.0003658376159434404
0.0003658457072784219
0.000365844766673027
0.0003658484849997047
0.0003658460506518465
0.0003658460613407267
0.0003658386206799234
0.0003658426209214997
0.0003658509661162231
0.0003658758992779508
0.0003642179433977066
0.0003542665545677194
0.0003371426061456879
0.0003161246536743562
0.0002955914623444048
0.0002787861467678653
0.0002659133645127219
0.0002551808778707609
0.0002435086747283786
0.0002305793158040176
0.0002177561079362163
0.0002113618530034448
0.0002145590613554003
0.0002299200890983456
0.0002435945691821951
0.0002453458770440822
0.0002970597322813392
0.0002949665509474881
0.0002786386040455296
0.0002603051421406805
0.0002565759656289229
0.0002643591722262565
0.0002798645314812044
0.0002954932034577596
0.0003096190995050727
0.0003225954546068518
0.000338145549801459
0.0003583916486981612
0.0003831481201638781
0.0004084329327077499
0.000429016230814243
0.0004409925775040287
0.0004429941385925724
0.0004429563399714532
0.0004429575216233753
0.0004429567705429565
0.0004429561716220066
0.0004429572496791562
0.0004429575669450106
0.0004429561635278315
0.0004429569291760487
0.0004429570683843947
0.0004429580962617178
0.0004429556698233447
0.0004429574649668324
0.0004429650599292631
0.0004429502390690826
0.0004429608642466953
0.0004429503426661784
0.0004429555030967486
0.0004429597602900891
0.0004429597602900911
0.0004429554933845119
0.0004429503523784016
0.0004429608577718799
0.0004429502390690831
0.0004429650615479661
0.0004429569599309709
0.0004429648705408273
0.0004429525101118195
0.0004429482674869689
0.0004429579732405792
0.0004429568450025051
0.0004429613045341496
0.0004429583892472645
0.0004429583941035509
0.0004429494750408914
0.000442954274501767
0.0004429642748618773
0.0004429936341444074
0.0004409933448732461
0.0004290226572616126
0.0004084249802144249
0.0003831363543947886
0.0003584130633908634
0.0003381500935405519
0.0003225978851204562
0.0003096103387499813
0.0002954944542639895
0.0002798687058567313
0.000264367704217153
0.0002565768386507433
0.0002602961956154847
0.0002786255226490908
0.0002949732984383471
0.0002970597650849704
0.0003596266759591953
0.0003571426280571421
0.0003376823801846512
0.0003158833532264536
0.0003115917331850178
0.0003210861049248808
0.00033982032241241
0.0003586982934689537
0.0003757749301417924
0.0003914740764657428
0.0004102495341476308
0.0004346359102983667
0.0004644036586511644
0.00049477979594419
0.0005194993430685461
0.0005338831461000166
0.0005362957931790793
0.0005362513845048427
0.0005362527945384288
0.0005362518963506001
0.0005362511805467002
0.0005362524689928761
0.0005362528494469645
0.0005362511707405781
0.0005362520865775404
0.0005362522532713811
0.0005362534828843668
0.0005362505784870617
0.0005362527258975626
0.0005362618136604782
0.0005362440891889232
0.0005362567853859628
0.0005362442107774625
0.0005362503764931705
0.0005362554773285844
0.0005362554734063748
0.0005362503706098475
0.0005362442205829855
0.0005362567834248565
0.0005362440813445027
0.0005362618136604784
0.0005362521257992794
0.0005362615900944693
0.0005362467915923849
0.0005362417339014557
0.0005362533318795412
0.0005362519806771449
0.0005362573246897249
0.0005362538300000978
0.0005362538496112939
0.0005362431615866709
0.0005362489076273382
0.0005362608742943883
0.0005362951969214801
0.0005338840690981568
0.0005195070326177418
0.0004947702851016196
0.0004643895919243241
0.0004346615252397999
0.0004102549761547731
0.0003914769913799315
0.0003757644524537844
0.0003586998006773549
0.0003398253363909082
0.0003210963403091502
0.000311592811725544
0.0003158726671947296
0.0003376667306857267
0.0003571506938869424
0.0003596267032784176
0.0004353022163990002
0.0004323689192453955
0.0004092642054900488
0.0003834595068763959
0.0003785923770265641
0.0003901901797870303
0.0004128124117104752
0.0004356005188747863
0.0004562346138769695
0.0004752221673245329
0.000497875346325933
0.0005272112140245627
0.0005629448238083437
0.0005993689605131839
0.0006289978539254394
0.0006462394719011174
0.0006491444097119977
0.0006490926357077128
0.000649094313116504
0.000649093243945032
0.0006490923909843591
0.0006490939258372863
0.0006490943820160581
0.0006490923791040777
0.0006490934696581039
0.0006490936668605543
0.000649095139939214
0.0006490916687002055
0.000649094239460287
0.0006491050737173498
0.0006490839326604908
0.0006490990673572952
0.0006490840799683599
0.0006490914239790116
0.0006490975158726748
0.0006490975134967348
0.0006490914216030693
0.0006490840918480313
0.0006490990744850951
0.0006490839207808166
0.000649105076093285
0.0006490935171764818
0.0006491048052368925
0.0006490871544265015
0.000649081121931335
0.0006490949593684472
0.0006490933413571705
0.0006490997207387727
0.0006490955462239805
0.0006490955723594038
0.0006490828254763405
0.0006490896824220152
0.0006491039546552247
0.0006491437006252057
0.0006462405710340911
0.0006290070280431108
0.0005993575942885407
0.0005629280071399639
0.0005272417715765136
0.0004978818673663413
0.0004752256812678297
0.0004562221182684967
0.0004356023009098758
0.0004128184142304288
0.0003902023975098771
0.0003785936583606098
0.0003834467784252299
0.0004092455347906343
0.0004323785413024241
0.0004353022653503078
0.0005268002333374193
0.0005233582950920903
0.0004960589668646815
0.000465684501466089
0.0004602755784897339
0.0004744662497672577
0.0005017639225512139
0.0005292504073401425
0.000554168864133399
0.000577125270225108
0.0006044325364045376
0.0006396671109116143
0.0006824737543448717
0.0007260486610703656
0.0007614758934300437
0.000782093410756241
0.0007855863307589886
0.0007855265736992504
0.0007855285685064543
0.0007855272990828293
0.0007855262829684799
0.0007855281108215617
0.000785528651980975
0.0007855262685752627
0.0007855275667832947
0.000785527802821079
0.0007855295529545681
0.0007855254280507637
0.000785528476392003
0.0007855413634778151
0.0007855162312137252
0.0007855342218964156
0.0007855164039242742
0.0007855251430782977
0.0007855323681364665
0.0007855323710149639
0.0007855251401997802
0.0007855164154383218
0.0007855342305319353
0.0007855162196996792
0.000785541366356337
0.0007855276185962436
0.0007855410468418515
0.0007855200538741059
0.0007855128806292358
0.0007855293428234929
0.000785527417100446
0.0007855350019723294
0.0007855300365442395
0.0007855300566940779
0.0007855149128576049
0.0007855230734323582
0.0007855400307299149
0.0007855854797029702
0.0007820947213837168
0.0007614868316774415
0.000726035160243634
0.000682453737486924
0.0006397034088974896
0.0006044402762174716
0.0005771294660851662
0.0005541540609391518
0.000529252535444158
0.0005017710552711746
0.0004744808123623112
0.0004602771201372566
0.0004656693615844727
0.0004960367625424858
0.0005233697111552858
0.0005268002806368495
0.0006373810913017459
0.0006333752258975278
0.0006013180482903976
0.0005658229002740447
0.0005599857290764787
0.00057738302825903
0.0006102937807673303
0.0006434154383493368
0.0006734869537911447
0.0007012294852877678
0.0007341108810323366
0.000776348465353953
0.0008274971087766821
0.0008794762522627412
0.0009217089399795749
0.0009462895917747624
0.0009504824669878699
0.0009504144281583107
0.0009504167960991241
0.0009504152895444538
0.0009504140898804903
0.000950416252064068
0.0009504168902569411
0.0009504140724429279
0.000950415606896198
0.0009504158893751262
0.000950417957399418
0.0009504130785357755
0.0009504166740384793
0.0009504319418473978
0.0009504021874056631
0.0009504234884054219
0.0009504024001366718
0.000950412747233313
0.0009504212808853132
0.0009504212948348843
0.0009504127472333082
0.0009504024001366677
0.0009504234988676064
0.000950402176943476
0.0009504319418473994
0.0009504156731565305
0.0009504315547467794
0.0009504067105552354
0.0009503982292142145
0.0009504177167692984
0.0009504154255516253
0.000950424409077422
0.0009504185293320497
0.0009504185537442269
0.0009504006285419875
0.0009504102921101635
0.0009504303655468381
0.0009504814560671111
0.0009462911253070253
0.000921721897877563
0.0008794602811842959
0.0008274734317022879
0.0007763914395788401
0.0007341200738123956
0.0007012344604614832
0.0006734694546017109
0.0006434180181694628
0.0006103022563466438
0.0005774002870582216
0.0005599875870266052
0.0005658050170203636
0.0006012917582610111
0.0006333887302879964
0.0006373811484532822
0.0007709543080017024
0.0007663420099829415
0.0007289961717327171
0.0006879073469856205
0.0006818862441332733
0.0007032643416598446
0.0007429001192752289
0.0007827652065410524
0.0008190246352626116
0.0008525330381803033
0.0008920731202249028
0.0009425844921604968
0.001003506275668032
0.001065287022423017
0.001115442668865258
0.001144638567551635
0.001149661259499767
0.001149585244583692
0.001149588033133042
0.001149586254376661
0.001149584847426635
0.001149587386695557
0.00114958813875845
0.001149584826300858
0.001149586630407148
0.001149586959962963
0.001149589393605366
0.001149583651730102
0.001149587889479011
0.001149605850267409
0.001149570841306479
0.001149595904443814
0.00114957108636073
0.001149583258798158
0.001149593310248544
0.001149593322923772
0.001149583258798155
0.001149571086360725
0.001149595921344113
0.001149570824406178
0.001149605850267409
0.001149586710683446
0.001149605398184583
0.00114957616912459
0.001149566181050362
0.001149589114750506
0.001149586410703512
0.001149596977612681
0.0011495900653923
0.001149590094968211
0.001149569016075846
0.001149580373074364
0.001149603999685985
0.001149660083809057
0.001144640387814909
0.001115457931756297
0.001065268242429797
0.001003478382030205
0.0009426350437718516
0.000892083960638999
0.0008525389443847448
0.0008190040472116378
0.0007827682268760759
0.0007429100914418138
0.0007032846899478965
0.0006818885107134492
0.0006878863670260545
0.0007289652499543027
0.0007663578941499317
0.0007709543662498312
0.0009321969638213079
0.0009269626762671446
0.0008839076027727612