/*--------------------------------*- C++ -*----------------------------------*\
| =========                 |                                                 |
| \\      /  F ield         | OpenFOAM: The Open Source CFD Toolbox           |
|  \\    /   O peration     | Version:  v1812                                 |
|   \\  /    A nd           | Web:      www.OpenFOAM.com                      |
|    \\/     M anipulation  |                                                 |
\*---------------------------------------------------------------------------*/
FoamFile
{
    version     2.0;
    format      ascii;
    class       volVectorField;
    location    "1";
    object      wallShearStress;
}
// * * * * * * * * * * * * * * * * * * * * * * * * * * * * * * * * * * * * * //

dimensions      [0 2 -2 0 0 0 0];


internalField   uniform (0 0 0);

boundaryField
{
    inlet
    {
        type            cyclic;
    }
    outlet
    {
        type            cyclic;
    }
    topWall
    {
        type            calculated;
        value           nonuniform List<vector> 
70
(
(-3.879807996633199e-06 6.723965309498306e-10 -7.737808039343796e-23)
(-3.728049705293648e-06 7.305780011047758e-10 -5.577406727459723e-22)
(-3.640668538895054e-06 4.659462906914549e-10 -5.49037617986573e-22)
(-3.595822077937872e-06 3.540821327434939e-10 -9.282166116855069e-23)
(-3.559580262301935e-06 4.451822527937933e-10 1.184208206948976e-22)
(-3.507147578502915e-06 5.594517869383261e-10 -2.078121174714064e-23)
(-3.455701290586445e-06 1.654947759623374e-10 -9.34978225857905e-24)
(-3.482266677561263e-06 -7.407414946933068e-10 -4.018651354465685e-22)
(-3.585712162427246e-06 -1.128313689426377e-09 -1.270060170542082e-21)
(-3.653562183802162e-06 -5.737085730115853e-10 -8.18765903221589e-22)
(-3.643934277383427e-06 3.136400019709773e-10 5.260523881254596e-22)
(-3.548000720046251e-06 1.038910059106126e-09 9.312454419023846e-22)
(-3.403568533206065e-06 1.468829334404234e-09 8.476844590983206e-22)
(-3.230444796562685e-06 1.459698002022063e-09 -1.190503137344462e-22)
(-3.070159071700953e-06 1.093300873866384e-09 1.121482177161341e-22)
(-2.949065416801124e-06 7.234895722678686e-10 1.065521827863367e-21)
(-2.823043568423058e-06 4.285113481201513e-10 2.986219287019603e-22)
(-2.733892367258506e-06 -4.455846239313137e-10 -3.119486685197216e-22)
(-2.735297292815938e-06 -1.897684883553502e-09 -2.301637062849776e-22)
(-2.840302005890256e-06 -2.794599735360526e-09 -2.636903054488658e-22)
(-2.985049175032107e-06 -2.50424328850222e-09 -2.12944374502467e-22)
(-3.055667253698783e-06 -1.416644274414039e-09 6.220180324951196e-22)
(-3.056387829902058e-06 -5.027201654781924e-10 1.874348572908117e-22)
(-3.005260475215826e-06 -1.114810957164725e-11 1.397591880341665e-22)
(-2.919282491979806e-06 4.35180536809382e-10 3.027217250261447e-22)
(-2.805421101988398e-06 7.572688687805802e-10 1.384464156870989e-22)
(-2.678105211306444e-06 8.231508969637455e-10 6.509580665769932e-22)
(-2.56621449833614e-06 8.011608211244923e-10 1.395168951059677e-22)
(-2.450129090780654e-06 8.326029876807921e-10 -5.886680811478871e-22)
(-2.352971050912779e-06 4.305460195671796e-10 -1.481951804315575e-21)
(-2.326500697335883e-06 -3.84205755022622e-10 -5.559873119850928e-22)
(-2.368340793915712e-06 -9.998269696028137e-10 1.298887309924589e-21)
(-2.447809081673867e-06 -9.143698591841864e-10 1.524038116659112e-21)
(-2.484225456460929e-06 -3.616984860485915e-10 -2.428878830854021e-22)
(-2.47689005719531e-06 2.051097377105234e-10 5.869682141863443e-22)
(-2.420706735847726e-06 6.871662189885989e-10 6.862422007609918e-22)
(-2.331195283107334e-06 1.137775575567462e-09 5.902841142475626e-22)
(-2.205601135735504e-06 1.258874198787932e-09 -9.685149288160426e-22)
(-2.129634466329282e-06 7.782734230525418e-10 -1.767697288883774e-21)
(-2.129690439093588e-06 -2.274408136287228e-10 -1.471238544290629e-21)
(-2.235048657999054e-06 -1.098551881158801e-09 -1.096896666405985e-21)
(-2.406179294943767e-06 -1.443041001823015e-09 -5.740521732501008e-22)
(-2.552168762076183e-06 -1.092007845583017e-09 5.481317703483854e-22)
(-2.631590019871415e-06 -4.417953424043758e-10 -4.772503364172782e-23)
(-2.650761492932243e-06 -5.655161365534089e-11 8.165342670475674e-23)
(-2.653486216823655e-06 1.973440285265499e-11 1.396086378591877e-22)
(-2.651273828165574e-06 -1.739669086313701e-12 7.452358671733984e-22)
(-2.644629855320192e-06 -7.47358276804185e-11 -6.286050613722276e-22)
(-2.649136672822498e-06 -2.418575759486275e-10 -6.20924778493398e-22)
(-2.673200385260441e-06 -5.333654020381496e-10 -1.273234934108242e-22)
(-2.727840983775842e-06 -9.048375652457035e-10 7.720728354813418e-22)
(-2.816299412307384e-06 -1.283161041857157e-09 3.661107565596168e-22)
(-2.923158802964577e-06 -1.61877861230506e-09 3.196846923906806e-22)
(-3.055923195965102e-06 -1.929137692653384e-09 8.726373316779986e-22)
(-3.169932219576165e-06 -1.961973097755649e-09 -6.739940789663714e-22)
(-3.229646751652438e-06 -1.834009468180224e-09 2.315898535201614e-21)
(-3.268059477228786e-06 -1.813766322500856e-09 5.180552401126134e-21)
(-3.290721198932311e-06 -1.82927927540989e-09 2.582741196861891e-21)
(-3.305317978687674e-06 -1.793412652859364e-09 1.475556374337595e-21)
(-3.310268145847926e-06 -1.668906192732724e-09 1.320273465324015e-21)
(-3.319630281071338e-06 -1.536939068336336e-09 8.676664114300355e-22)
(-3.35156660374629e-06 -1.549301129243948e-09 1.040427269641675e-21)
(-3.433141585150632e-06 -1.659135111316314e-09 4.584029106166473e-22)
(-3.552493492101326e-06 -1.705760505495708e-09 4.344668024509743e-22)
(-3.704899021105419e-06 -1.538538612676966e-09 5.177776483340815e-23)
(-3.840529250537922e-06 -1.048985848261566e-09 7.082115289573486e-23)
(-3.929304760666592e-06 -3.505154901654944e-10 5.281694378764507e-23)
(-3.932105745195905e-06 1.393617402811528e-10 -1.942665115237542e-22)
(-3.935510294381224e-06 2.043858346056278e-10 -4.170806766843424e-22)
(-3.941988383233474e-06 3.226697417994623e-10 -2.938804194067903e-22)
)
;
    }
    bottomWall
    {
        type            calculated;
        value           nonuniform List<vector> 
70
(
(-1.97258628620159e-06 1.35106383829853e-08 -1.705279100125334e-20)
(-1.841370184375595e-06 2.567857280285774e-07 -2.086251476596509e-20)
(2.5822548269134e-07 -7.932490864345022e-08 -2.157719406387394e-20)
(1.349349728630724e-06 -8.989758581329869e-07 -3.091859597749411e-21)
(1.139717189039412e-06 -9.126298699874148e-07 -1.193953769741136e-21)
(1.158069824755175e-06 -9.57688264467772e-07 -1.020859168739372e-21)
(7.488686306347816e-07 -6.048334587225256e-07 5.963422254830716e-22)
(5.804491049770149e-07 -4.575064098068152e-07 -3.121454836957664e-21)
(5.990738862584882e-07 -4.648345675403295e-07 4.749044124321983e-22)
(7.192859074142567e-07 -5.533132468120147e-07 1.794129427117075e-21)
(8.032730179092393e-07 -5.894159824676253e-07 2.929410695486362e-21)
(8.480956777435816e-07 -5.612779188641463e-07 1.697127221612729e-21)
(8.648888574195743e-07 -4.774246167681092e-07 2.560196937455882e-21)
(9.717607415041377e-07 -4.052426654902184e-07 2.575892211945036e-21)
(9.943758791637899e-07 -2.707457252106059e-07 2.341626531448726e-21)
(7.752033192418155e-07 -9.535160480431891e-08 1.396838054949692e-21)
(1.128198890131974e-06 -1.133599740748726e-08 9.55542796802993e-22)
(1.61234163850336e-06 -5.035010075825131e-09 1.661750127529831e-21)
(1.805467915042296e-06 -3.779619400322916e-09 3.11010202734038e-21)
(1.945490213080093e-06 -2.858611744165585e-09 5.368791326429437e-21)
(1.909810355175514e-06 -1.702141860811524e-09 4.930929325919288e-21)
(1.84246447021001e-06 -1.384842174326131e-09 1.333106496738166e-21)
(1.771037348826787e-06 -1.36075142046114e-09 2.110055252084423e-22)
(1.725251467372166e-06 -8.631830087210466e-10 1.992331742077182e-22)
(1.605267249341539e-06 -5.544415166337642e-10 3.142924651431663e-22)
(1.525817415016935e-06 -2.083329358826083e-10 -1.908548547859968e-22)
(1.373872540541606e-06 3.312499995466488e-10 8.967031080958288e-23)
(1.254555373922111e-06 1.6522112851599e-10 4.608815386198546e-22)
(1.15855424586298e-06 2.7167996309757e-10 -6.012828512184075e-22)
(1.042457991787054e-06 6.771681646688496e-10 -6.804371891786798e-22)
(9.158169232810286e-07 6.969330245606972e-10 -2.016384125945221e-21)
(8.189951159889847e-07 6.596444839577691e-10 -1.226544241898146e-21)
(7.26477513601009e-07 7.619871603998821e-10 -5.847225271776266e-22)
(6.296883049395561e-07 6.900335943296539e-10 -1.074518460593277e-21)
(5.874612960349705e-07 9.693889852633062e-11 -1.917289041657044e-21)
(6.071014218751658e-07 1.370349936747477e-10 -4.756984687014337e-21)
(5.445891185737649e-07 1.261398302166157e-09 -2.498116962397318e-21)
(3.86247233030055e-07 1.179160155521027e-09 2.374488235557297e-22)
(3.736948046389711e-07 -1.484496574445285e-10 1.265095637382108e-21)
(4.438737205333813e-07 5.171365953401633e-11 4.089767897669859e-22)
(3.893401464585803e-07 1.377054569301459e-09 3.304132696334824e-21)
(2.543750113460336e-07 1.534623526155632e-09 2.919744507038789e-21)
(1.869644381943485e-07 9.817279264160487e-10 -6.022499556003402e-22)
(1.176936266763778e-07 1.050492147277086e-09 -3.498965345675792e-22)
(6.97524566296986e-08 1.198802497058274e-09 -1.253736795787712e-21)
(-1.651161840184255e-08 2.784494982385119e-10 6.330480146680535e-22)
(9.856241370413882e-08 -1.150744027518797e-09 7.396604502734083e-22)
(2.702161653621033e-07 -2.834294732953381e-10 -2.21875954453339e-22)
(2.438671880381595e-07 1.895021185440445e-09 4.939007976594861e-22)
(7.14934813364823e-08 1.667280720252968e-09 9.3542275372613e-23)
(9.053403908055751e-08 -6.596541630554912e-10 -6.495988295104052e-22)
(2.789744649677752e-07 -4.757508582864372e-10 4.404177962011625e-21)
(3.302782291230915e-07 1.214300658496997e-09 7.810335625118286e-21)
(2.814591708497162e-07 2.579156298946419e-09 5.049543791472365e-21)
(3.212155649475025e-07 3.888085545634787e-08 6.829500900034306e-21)
(1.67367733325569e-07 4.453446650945117e-08 4.179406386178648e-21)
(1.297554458990995e-07 5.217074192255383e-08 -4.364950553501052e-21)
(6.218437768862723e-08 3.201530775678227e-08 -2.138098995301962e-22)
(-7.815475998769378e-08 -5.260712951982581e-08 -1.13168173731602e-20)
(-3.513714015103654e-07 -2.505219466730335e-07 -4.645278243049384e-21)
(-8.122995845377309e-07 -6.021579614925213e-07 1.296220386696561e-21)
(-1.31839642310005e-06 -9.905175597117181e-07 5.448484639091921e-21)
(-1.855193796810578e-06 -1.426460502226043e-06 1.202250332401535e-20)
(-2.349036621197957e-06 -1.863450120599893e-06 1.499584572446799e-20)
(-3.421787987210897e-06 -2.781700479765629e-06 1.765509264059696e-20)
(-5.316879601717912e-06 -4.097547632030924e-06 6.226533027510063e-21)
(-8.394848390916856e-06 -5.435673543872045e-06 8.936149554019022e-21)
(-1.089251535629815e-05 -4.482925343386239e-06 2.88513170804969e-21)
(-7.43584672011396e-06 -1.052709962687978e-06 6.41407119667025e-22)
(-1.872422525847707e-06 -3.064736143009336e-08 -8.818048341331406e-21)
)
;
    }
    front
    {
        type            symmetry;
    }
    back
    {
        type            symmetry;
    }
}


// ************************************************************************* //
