/*--------------------------------*- C++ -*----------------------------------*\
| =========                 |                                                 |
| \\      /  F ield         | OpenFOAM: The Open Source CFD Toolbox           |
|  \\    /   O peration     | Version:  v1812                                 |
|   \\  /    A nd           | Web:      www.OpenFOAM.com                      |
|    \\/     M anipulation  |                                                 |
\*---------------------------------------------------------------------------*/
FoamFile
{
    version     2.0;
    format      ascii;
    class       surfaceScalarField;
    location    "1732";
    object      phi;
}
// * * * * * * * * * * * * * * * * * * * * * * * * * * * * * * * * * * * * * //

dimensions      [0 3 -1 0 0 0 0];
oriented        oriented;


internalField   nonuniform List<scalar> 
89449
(
0.002261105722230138
0.002164123160675765
-0.002259833660861637
-0.002165395222044564
-6.762052644463212e-06
-0.000807834762128999
0.003075702536977123
-0.005658111972808674
-0.007824513969154028
0.009377877939226231
0.004104748002739888
-0.003079771413106399
0.007527436488590347
-0.01010577704829012
-0.002804126364445665
-0.00810015901775139
-0.003658078517391561
-0.000131441507078846
0.000228655978601134
0.003560864045869075
0.000190485003233305
-0.0001562555087064473
-0.003692308011915614
0.0003417058386787821
0.004145731850825819
-0.002695582305494172
-0.001791855384006217
0.00374729861311821
-0.00331585239470336
-8.974037972423302e-05
1.239729402994417e-05
0.003758173638996404
-2.32723199141301e-05
0.003994618058852935
0.0001635110860047405
-0.002025112954274016
-0.002240302914559272
0.002464631114416821
0.001800784754416614
-0.0001369113146146247
0.001400836366117101
-0.003289038005775304
0.0009732695321804522
-0.003350483761349971
-0.0001426628795386134
-0.0001527293937688821
0.0002654531972882546
2.993907602190264e-05
-0.0002001041392523957
9.779257045967056e-05
-4.035131071538422e-05
0.0001477530178649676
-0.0002723747428912037
-7.548241421386756e-05
0.0003251291343153113
0.0001209058229511557
-0.0002982819392908355
0.000270192311002586
0.0006366865232306747
-0.0001712793747329394
-7.168915792974629e-05
-0.0003937179905605212
4.601031401498931e-05
0.0004800872652392494
0.0001105889440178864
-0.0003433468966948179
-9.349299224796183e-05
0.0002655605142051734
0.001157464877429853
0.0003766066155091887
-0.001255704041038768
-0.000278367451899764
0.001046288245288472
-0.0003090660011117514
0.0004202426332830316
-0.0006760149765131736
-0.0006199704896644155
0.0009101308228701607
0.0003858546433075925
-0.0007504323883373047
-0.0002843851778487813
0.0003588025896659949
-0.001006613062011575
0.0003737846181557823
0.000978882142934386
-0.0003460536990786096
-0.001037839781706161
-0.001326265321755885
0.001939806189654816
0.0004242989138088859
-0.0006914570861589231
-0.0006327175556991929
0.0002863348601431911
0.001523830410407889
-0.001412926183655468
0.0003466087338587495
-0.0004575129606111888
0.0001679003762688906
0.001269835632136149
8.609440200725169e-05
0.0005393827544453343
-0.001226119440571135
0.0009787385430086884
-0.0002920018568827006
0.001107374639516168
0.0009903553177416969
-0.001558347202830055
-0.001002920448984781
-0.0001450558680897227
0.001099127341558876
4.884897551615939e-05
-0.0005956476611554031
-0.0007671487469194979
0.000359875959075813
0.001729820866196981
-0.001452096894387681
-0.0008733716329333488
0.0003586455574757993
-0.0003503064248560185
-0.000155784580994704
6.002914023003692e-05
0.0004460618656194876
0.0002626651183359929
-0.0006853920379726762
1.445593924817664e-05
0.0004082709803896272
0.0002577409168356452
-0.0001370271184800245
0.0001389916567094675
-0.0002597054550620885
-0.0002175473117764834
0.0002267605585059171
0.0002485276700640368
-0.0004169699051075424
0.0002282590796257289
-2.883648644913664e-05
-0.0002838047125136046
0.0002846383144560042
3.427756878154939e-05
-0.0002564266383813269
-6.248924485573876e-05
-0.0003214732868533761
4.292750271710456e-05
0.0005381296095925506
-0.0002595838254625691
-2.02545221467888e-05
9.688020026759917e-05
-0.0003980989649107976
-0.0003133926746463324
-5.716827237679835e-05
0.001078355094006407
-0.003245522739239978
0.002917214269505107
-0.0007500466242792135
0.0007487715333138158
0.00223821593477079
-0.001908632374065001
-0.0009335371365560709
-0.00286297442314818
0.0005509888203987559
-0.001054078237233405
0.0008124478342524832
0.0007672340339513723
-0.000525603630970412
-0.001393137986500385
0.0009594045682523881
-0.0006203448190057234
-0.001341249988475963
0.001367551931053209
-0.001419439929074743
0.00134083088113655
-0.0007417673914572312
-0.0012228371584741
0.0006237736687940555
-0.0004008118462477635
0.001092319576089752
0.0006493231513083366
-0.001144720193584884
0.0009339283777011169
-0.0007176524082669677
0.0009284442241506847
0.0005041039943597172
-0.0006403166868155062
-0.00100850750112854
0.001393042705195221
-0.001316764390682409
0.000427825679858394
0.00158520369145619
0.000435085342071602
2.215164526749288e-05
-0.0005289261452922252
0.0003771608978717136
0.0001039347582686567
7.919474951339944e-05
0.0002786223272194409
1.934382111382719e-05
0.0009670973023626081
-4.835753152513883e-05
0.0001739433949839695
-0.001092683165820387
-0.0002113899502090015
0.0003636364480587388
0.0008148508044453338
-0.0009985553241944089
0.000611307164028849
0.0001758582099590767
-0.0008155399353499411
-0.0002313729204101168
-0.001291418839507037
0.0009483158005779725
-0.001772235716407884
0.002115338755338265
-0.0005286579046667222
-0.00193330905390681
0.001170548119079869
0.0002614358363452206
0.0006428015547389071
0.002200066286401943
-0.003104303677512868
7.352088936624906e-05
0.001921158797204062
-0.001733243850239814
-0.0016886197563851
7.556934981079469e-05
0.0009893870175410077
0.0006236633890334427
-0.001524128529158554
-0.000346356807442576
0.0001818655802336877
-0.0001691777271453595
-6.080153171576387e-05
0.0001591762702613944
7.0802988597221e-05
2.201739237113513e-05
-0.0002020596583664032
1.086453887641409e-05
-0.0001252693643756716
-0.0002751156096696348
0.0001531268844284798
0.000247258089612803
-0.0003785707526221197
-6.110477402228748e-05
0.0003144061623021653
-4.576259225801797e-06
-1.335466909121964e-05
-0.0003606398243306882
-0.0003404934005520249
0.002670681901153002
-0.001989147537087773
-0.00226862782822338
0.001587093464152337
0.001190722917778857
-0.0002553695833130639
0.001735328566650073
0.0002926432600225679
0.0001337931066680126
-0.000802537632537003
0.0003761012658141352
-0.000301124286746951
0.0001861545281827807
0.0004076130186125925
-0.0003937024531133409
0.0005222212914767779
-0.002111929463884596
0.001983410625519753
-0.0013601586394838
0.003141963231716888
-0.00217550704536382
0.002619175436233538
-0.001122199933800476
-0.002857134141937035
-0.001052859838431896
0.0008909389806379172
0.002781096294021732
-0.006077364835773419
0.0006927254809037673
0.00517372872175279
0.0002109106325692717
-0.003847208327469525
-0.002354311030075489
0.000124154522015306
-0.001658353531886454
-0.002330990596964874
0.0001421358014738405
0.001788806453930931
-0.002757892883079134
0.02223659815930582
-0.02126751173015814
0.02358400981885876
-0.0004818130537922059
-0.02131339031113273
-0.02226321335269048
-0.004879055285319417
0.01902952515829472
0.008112743479713087
-0.009543116875828487
0.01113100234115683
-0.0238510988178834
0.02922333018133109
-0.01611951522994714
-0.02264693182719565
0.0186992209281256
0.005645053967871267
0.0108217042011979
0.01669554569868599
-0.01225383274247278
-0.01526341715741145
-0.01632928378208696
0.01861142045427325
0.008539567529064583
-0.002771227554151694
0.0135204969931199
0.003235440350338212
-0.01398470978930703
-0.001665144072394403
0.01372078535475229
0.00550702180690186
-0.01756266308925541
0.01308824235456004
-0.01752461398114946
0.0009491271045103105
0.009456568371067774
0.00240901385968433
-0.01281470933526009
-0.003447078120907656
0.00811308331159879
0.00506518768787281
-0.009731192878564018
0.009612837349046173
-0.01211078836545065
-0.003062132872506035
0.004818611751107341
0.01139685481306672
-0.01315333369166555
-0.01803590092325212
0.01467233594416662
0.0003014321065074361
-0.001689476405229075
0.002614598224719244
-0.0189610227427654
-0.00927721253182682
0.006763583741682448
0.001993763701998406
0.0005198650881470031
0.003414610736105285
-0.0007749614858784253
-0.01191686178203797
0.01075261991946047
-0.01519049601496462
-0.01359956811392285
0.01803744420942698
-0.01303681022518857
0.02237102214351055
0.001418408001114712
-0.00585401168169807
0.004902320302621684
0.003272617774621866
-0.002320926395546798
-0.001368446637040194
0.0009465183011792649
-0.00543208334581231
0.003386552985633519
0.002474303624590317
-0.002721174564216684
-0.003139682046007414
-0.005209892941555773
0.001375387369184876
0.003491700583252793
0.0003428049891183069
0.001760167302996963
-0.003583507258944292
-0.004696167448447128
0.006491681102657924
-0.006713073025702737
0.00491755937149189
0.004033236052023107
-0.002133079650905183
-0.006596323849687757
0.00304167696213879
-0.003291023892804888
-0.006049651924909348
0.006298998855575035
-0.004551137918944421
-0.001523268356467032
0.009116083237484529
-0.001350480709220999
0.003508853166182253
0.001478230949352745
-0.001652565920138122
-0.003334518195397067
0.002674799693642821
-0.002395414537048605
0.003229468009613417
0.003794185249815567
0.007932937512649302
-0.001105716493938848
-0.01062140626852768
0.006121955598418968
-0.0007539525300729892
-0.006133112634052705
0.000765109565704861
7.814433150781691e-05
0.00545143475496335
0.0005923765119427864
0.001144576654841936
-0.001903995196007033
0.00341168640275564
-0.002652267861590457
-0.00344787363079749
0.004477956318247615
0.0001144939673778155
-0.005273724495360612
0.00377901712894454
0.002080685949767112
-0.003549877425563625
-0.002309825653148163
0.003204182567095946
0.002891978234635584
-0.003118785597256923
-0.00297737520447449
-0.00417506266496832
0.001390109994803633
0.003214181066602595
-0.0004292283964376348
0.002128736920615669
-0.003099617018409588
-0.002550261668997556
0.002969426664870729
0.01436043419282971
-0.01477959918870653
0.01623708313455616
0.0007006612409232168
-0.01948800604442599
-0.01101457076408338
0.006309016661628327
-0.004012870569186816
0.008718424671639023
0.004539179309540501
-0.004449846095166468
-0.01110390397840027
0.01275647345873703
0.005568329548130503
-0.01378562369729976
0.004175298396838583
0.01489019172363478
-0.006399230756999096
0.00181116021766897
0.01237435216875018
-0.007786281629444725
-0.01533783168545184
-0.005416303533086967
0.01435490446155964
-0.002487111571134876
-0.01660316539431828
0.003752445279973671
0.001737956924329364
0.002762043333474608
-0.001626167329383184
-0.002873832928420956
0.002777083989591315
0.001705227898056021
-0.002744354963291616
-0.00181860128040311
0.003798222063551891
0.0007974632064433182
0.002815009863973439
-0.001871567810832242
-0.0008420429733049196
-0.003345716979673598
0.001031473338686007
0.00315628661429257
-0.003322272397251892
-0.0006615307895838139
0.003141760213559059
-0.0004075467831815538
-0.002728430360044588
-0.0001862952540438131
-0.004169740138419988
0.0004164763755912294
-0.009865780801256187
0.006130524107565659
0.008264136451713535
-0.004528879758014578
0.005485047798956945
-0.009562118776623919
-0.005788709823636968
-0.01994622845840761
0.02061216347253425
-0.00250860953616663
0.001842674522040371
-0.004110899957565115
-0.01509508241856528
-0.0007402460823535283
0.01263080962474649
0.0125599363989432
-0.01116661164593417
-0.0140241343777554
0.01386209585957376
-0.01174159143734362
0.001626588264537205
-0.003747092686827799
-0.004989535741046974
0.006092973183777372
0.01275865841688489
0.01702858853701348
-0.01687600000810923
0.01099429611864276
-0.01114688464754681
0.01316354327017448
0.01454895853522391
-0.01068391326831578
-0.004018532320394371
0.00384692141783539
0.002174112136118702
-0.002002501233561984
-0.003587551360820333
0.003496072615450772
-0.003927053575037794
0.00314534184611956
-0.003031264939579559
-0.002121154232250688
0.002007077325711508
0.003200060746523715
-0.002404192784065177
0.00234947388364761
-0.009782517545150556
0.003286249624214098
0.01257014536384839
-0.006073877442901825
0.00426201475161127
-0.002992808250177938
-0.01105172404658583
0.01164500951859406
0.005904016600581417
-0.01328701136758211
-0.01825307466271952
0.003941573546963928
0.01648394430787065
-0.002172443192115904
-0.01290593122792056
0.01117899966449694
-0.01652614309926742
-0.003897635702536443
0.002102912201739867
0.004525684992125751
-0.002730961491330061
-0.001037057230812942
0.004605326968872763
-0.005042098282253956
0.001473828544193034
0.008771179712761029
0.002062567908445108
-0.003550022443273175
-0.007283725177931532
-0.004156893383870806
0.004134152372991395
0.005373078402596985
-0.005350337391717343
0.00611343380597029
-0.001499147477147927
0.01073175970852126
0.001580073159305334
-0.0005631840396025724
-0.01174864882823558
-0.003654990290225468
0.006144208730546184
0.008242541268227085
-0.0002286548807494181
0.01151542664999407
0.0002281446516399214
-0.01151491642088483
0.01312799791950552
-0.0120275916044542
-0.001329061195705279
-0.002881236025121485
-0.0003026504487595955
0.01631188439335619
0.010214263784241
-0.0169555592778866
-0.005481100194130506
0.009686792302945996
0.0127498671690533
-0.003602825332328437
-0.01455188864986668
0.001199154704264422
-0.002955143116814508
0.003252504444898999
-0.002899123008533312
0.002601761680449545
1.646720335569978e-05
-0.004008667551013914
-0.009446885416929994
0.004884217623974674
-0.004471228839667613
0.009033896632625996
0.003963439232616514
-0.003732391202274148
-0.00967793344728018
0.01275116981585152
0.003215755592229451
-0.01200348617549074
-0.005946492356971869
-0.001526183138013928
0.0009894351381184551
0.006483240356871102
-0.001890269801291616
0.002247345741446584
-0.00630356829714936
-0.005684610023758575
-0.002830653658992013
0.006989080544766277
0.003616635144880928
-0.0009014132461204995
-0.006374428802973587
0.003659206904217345
0.007277786099314642
0.002445373276443128
-0.006106524230862585
-0.000297093725611605
-0.005265219098713999
0.004104514546014689
0.003238523946506028
-0.002077819393807293
-0.004380498812503704
0.002130468869486015
0.004597222744496313
-0.002347192801478461
0.001501597619853304
-0.003422129719030591
-0.002459966713250233
-2.928875485596287e-05
-0.0005963667563667601
0.003529696151687688
-0.002904040640464174
-0.003171980974823202
0.0033122543700016
-0.0001695621500125557
-0.01551996304817414
0.003372209013644973
0.0152984952418197
-0.003150741207299504
-0.006065594317676397
0.005866879929460962
-0.01532124865995439
-0.01202321727902167
0.0001694844625467979
0.008922803975708802
0.002930928840766833
-0.005745923275293216
-0.01209778723365576
0.005820493229832278
0.007980835007819419
0.002648456285381438
-0.005054673202721762
-0.005574618090500394
0.0006619435564407883
0.001783559260897996
0.005535332190493346
-0.01028084744045977
0.008999148855621465
0.001943642141296328
0.000784574647799124
0.00375432515967651
-0.003600285671263616
-0.0009386141362128885
-0.003727092930336464
0.0006785556551216484
0.003833111923010389
-0.01402777852033048
-0.008086650177409518
0.006643256746064562
0.0154711719516629
-0.003816023109544162
-0.01328139651412501
0.003069641103343124
0.002950240327400518
0.00125846190495761
-0.0009514330908393698
-0.003257269141517928
0.002249104363118234
0.003861381644769341
-0.003160245680495323
-0.003826330816509439
0.004749926933440563
0.001325508246209512
-0.00164820333451512
0.001202365215162856
-0.003777932051648792
0.004223770170989932
-0.003251984545755914
-0.003055999770751341
0.004659780982027723
-0.01472788029738515
0.01353053749745097
-0.002057863433409241
0.003255206233345513
0.01730005292630692
-0.01035528012652403
0.005250210322209604
-0.01219498312199163
0.002563351707797316
8.820921057749242e-06
-0.01489091036847357
-0.0074178718300617
0.006446034235857327
0.01586274796211449
-0.002005489815515397
-0.01412524917800837
0.001239828625078079
-0.006506879337521357
0.00223032740081329
-0.0008408376962190579
0.005117389632927065
-0.0001108194329338429
-0.005546741349436087
-0.000849318555146451
0.001780471137278054
0.005647358972713614
-0.001256232531400732
-0.006171597578591956
0.0059548539207035
-0.006693682967332452
0.002519300183974479
-0.004087497489531156
0.004587611698155152
0.005454739712110482
0.004413932192668673
-0.002854070709438743
0.005293478287370693
-0.003504516124599749
0.005476813883026755
-0.007265776045804227
-0.008297327622992848
0.003381982270726906
0.01020882363968854
-0.001401979359287898
0.0009001936403022463
-0.003698729441474131
0.004200515160456902
-0.00340210981548637
0.004230457857015274
-0.001842153374986627
0.001604277759872523
-0.003889092306885109
0.004126967922000934
-0.003149959408281926
0.004254159319192043
-0.002946353285897282
0.02652851177576394
-0.002032706979847152
-0.0244958047959176
0.006520708805926609
0.0200078029698232
0.0001224524547316313
0.003173018610883834
0.001331416659589263
-0.004626887725207042
0.003998435670432584
4.529102213484425e-05
-0.003921274237796151
0.0008812228041255195
-0.02140607647612959
-0.0001451464261702384
0.02067000009817609
0.00260351816789345
0.02051250199225167
-0.0222347973559529
-0.007048224318821443
0.004094413290345131
-0.001285618844990987
0.004239429873466681
0.009122309871518262
0.0005373300520878503
-0.005072028225430666
-0.001430430571727516
-0.004012274282109419
0.001352257964645798
-0.001085674128477949
0.003745690445940411
-0.0005214984186544498
-0.003952290400250983
0.0004615145368413149
0.006371736242291422
0.002991925047921933
-0.004532301236111381
-0.004831360054100916
0.00136384404812725
0.006639450375867119
-0.00163155818167552
-0.01331515546667168
-0.007075561735763768
0.006180979064483308
0.0142097381379555
-0.001073443165150792
-0.01231591621464699
7.4203913130285e-05
0.001029955047709311
-0.004052491752127722
0.004098219693159164
-0.0010756829887398
0.0007415408496609983
-0.003386015146385655
0.00367442934445748
-0.003976602543007801
0.001232979596149395
-0.001502142845723886
0.004245765792581841
0.0005914156076096515
-0.0001336316099416576
-0.004434386540610693
0.004483926537683706
0.0009097748677589601
-0.004802285797876821
0.001664414381689665
0.009649621350084264
0.003382117607196482
-0.004777482779591801
-0.008254256177667067
0.002853545992648078
0.005775634245971442
0.001020441111425056
-0.005284480956607095
-0.0005866528620658887
0.004384656298692382
0.001486477519980516
-0.0008109262574466834
7.19448409446859e-05
-0.004545499540028336
0.004953447866932452
-0.004854599256589649
0.009168622107233121
-0.002085729205466378
-0.01102950369917445
0.003946610797407892
0.006536138529014478
0.002049170916786642
0.0003975370806839636
-0.008982846526485294
0.003010358611947145
-0.002156602117076841
0.005682382034157708
-0.008612967277724291
0.0052887766697964
0.006334549219876022
0.002604825746335011
-0.003231024462711972
0.003694142387577385
0.002037445900720068
-0.002500563825594006
0.0004063970527390963
0.0002925086033529518
-0.003929930118796708
0.0004228013351436489
-0.000528277429016298
0.003799618481470629
0.007179832972249979
0.002259895052274901
-0.003839142378382633
-0.005600585646140127
-0.003712405488307401
0.004712164848545263
0.006180073612042334
0.02291010104017434
0.0001999453521216241
-0.0007989294649957864
-0.02231111692730131
0.002241458387661439
0.02000666531120908
0.0006619773413487926
-0.003619768061723898
0.02165951951367048
0.00173825163955992
-0.01977800309150475
0.01770179013138459
-0.001140654061045056
-0.02018090413202956
0.005759175592953321
0.02503494236892619
-0.01309232783050574
0.02761864045883091
-0.01792566831839182
0.02095094242558676
0.001451161995941245
-0.004476436103136181
0.004682955449074792
-0.01183643225019521
-0.01077219151717755
0.000628636011223585
-0.004709452643527819
0.004889922509899788
-0.0008091058775967294
-0.008117854930024985
0.008186815824212343
0.000559675117026144
-0.004010063118341751
-0.00106879027329153
-0.003039001538377116
0.004529279430820115
-0.005739551333252676
-0.002799791215901324
-0.001248963485946645
0.004738333861263171
-0.00139064145371746
0.0007813615305811014
-0.004129053938127531
-0.002476350072341168
0.001475132600384749
0.007851686233429951
0.004786621428073897
-0.004451491837278096
0.001513217728980072
0.006132898198993333
0.0002055703054596911
0.006031510524178321
-0.003515824758585307
0.003908019804052565
-0.006423705569646291
0.001650872702778773
0.005716801443860262
-0.001336163622447258
-0.02440247271900199
-0.000615177660655061
0.02307355860274666
0.001944091776909499
-0.01888614543414931
0.003248242063280911
-0.008764569348135444
-0.004848847666065444
0.001181507030840626
0.004276364980848576
-0.0006090243456223803
0.0008469641593904099
-0.003504516565219394
-0.00219129526025741
-0.002681535296158356
-0.008980102404284068
0.007211415110673501
0.004450222589767476
0.005651655055608153
-0.001129789873023334
-0.007203400478752395
-0.01223548827980718
-0.002121087375682834
0.0101372344198321
0.00421934123566127
-0.0008308407583338718
-0.01165958141922017
0.0002549338977388414
0.0110083502223989
-0.0009083915661081493
-0.01093079941457195
-9.283955753052657e-05
-0.008713149645897195
-0.001818678196051401
0.005224783416633631
0.005307044425318685
0.0003640593226396125
-0.002048338567638963
-0.007028870400926712
0.008865735891197471
-0.009410068134675561
-0.004095561574051677
0.0002772166378415891
0.004032483733702067
-0.0002141387974912646
-0.005076924727214987
0.0009617072105735012
1.965594257512494e-05
0.0008348318445943919
-0.003131538313868096
-0.002780218257941372
-0.003891148074047165
-0.0001742442242046444
9.498968066848213e-05
0.003970402617583194
-0.002824051472710007
-0.0003642039124239748
0.003379676219078145
-0.0001914208339208637
0.003275629073477389
0.00114085957441707
-0.004274750686770358
-0.0001417379611255995
-0.0006432604869625759
0.001053046449102357
-0.004535065376419825
0.004125279414281561
-0.004920702256140892
0.004082222736113101
0.0001952190330334129
-0.0005906543379647294
-0.003661300976140046
0.00370832100910759
0.000543634304997213
-0.0008135252018613345
0.003718158624571563
0.0008766124619624265
-0.003781245884672619
0.003808759913319874
-0.0008608368549371854
-0.003761448260229798
0.0006272600848564591
-0.000626449551097212
0.003807949379567605
0.003754764371488151
-0.0004918336883107194
0.003509782061985501
0.0007796868364523448
-0.003797635210126578
-0.004120032057122561
0.003664234545173896
-3.603617633292412e-05
-0.0006211479820173002
0.00024178568633498
-0.003740669761434477
-0.004504203172039887
0.002454063082168795
-0.001291773604510616
0.003341913694382291
-0.0007607938008767139
-0.006713914947912326
0.002970505576748584
-0.0004065580333939557
0.004124931580277739
0.0002662799490599191
-0.003984653495943751
-0.004450099678559884
0.004097912434231312
-5.437078905053878e-05
0.01536494166108075
0.007542275721116899
-0.007297411426500713
-0.01560980595570651
0.002966514972218379
0.01509353850219728
-0.002695111813360562
-0.01073752638976172
0.00920695562789668
0.0008534989379125012
0.0006770718239558183
0.01189568043130102
0.004339038703523142
-0.0075533284879541
-0.008681390646873217
0.002438641447087573
-0.001280487405599341
0.01093667498115588
-0.008711831064040223
-0.005749327540215057
0.003524483623088745
0.01274718937292455
-0.009118979139228765
0.007308464747462721
-0.002864958676341625
0.006736269101493327
0.008875878947762936
-0.002926450405907333
-0.001500032978070831
0.003977514729467196
0.0004489686545601534
0.001017461574316094
-0.003047930161246595
0.003790320184909828
-0.001759851597979185
-0.00238942912331259
-8.788782934884205e-05
0.003494778526969419
-0.003656159859222486
0.001107077751733682
0.00399905166085267
-0.001449969553364527
9.218483564016241e-05
-0.00340689105408584
-0.0003414536407797058
0.004355357734666265
-0.003590978599202766
-0.0006721942998127439
0.002414505325152779
0.003357347855262162
0.0004845003409607419
-0.003348336988364316
-0.0004935112078581882
-0.0005886587307591029
0.0005045834070981307
-0.003294468010075462
0.00337854333373739
0.003401566365470664
-0.0006328772409309999
-0.01824309418694851
0.004815727030563857
0.01598027803006532
-0.002552910873673811
0.008058104400141869
-0.009124590176368219
-0.01717660841071787
-0.002435472188982915
0.002460548390821383
-0.001307232358017791
0.003363128493333515
-0.004491368324298127
0.01117369375725728
-0.0189615650530817
-0.004672929444491283
0.01246080074032192
-0.004472583661311523
0.004917518050911752
0.01072875936762766
0.01317479230248717
0.008224544315697685
-0.007540623195112242
-0.01385871342308158
0.003400118335884001
0.01366862519986712
-0.003893951233217065
0.001319688872196977
-0.0002660291345868606
0.00356590933121723
-0.004619569068827131
0.003666268514936358
0.002874794174030706
-0.00522137381677993
0.003382342822533085
0.002472930219203429
-0.0002221740952594841
-0.005633098946476981
0.004602362712535623
0.001943939864980961
-0.005426500202705045
-0.001119802374810548
0.002666557083957565
0.003849166181505631
-0.001913360552920917
-0.005388495692427666
0.002402044154092268
0.005653008622293985
-0.005472086671096688
0.002027530843650228
-0.006523721846167552
-0.001262842433552667
0.005191400139889312
0.002595164139830992
-0.00274929564698758
-0.0001088250971361551
-0.003665601102061498
0.004836312687762328
-0.00252820801608013
-0.005057400318677843
0.0001703426914310531
-0.0004755434757641121
-0.00365891983409072
0.003964120618424292
0.003765819885479663
-0.003751337426677533
0.0001558602326263517
-0.002542546067468605
-0.003422047926608027
0.001238644591684872
0.004725949402392365
0.0007838284673474006
-0.0007995587485511895
0.004277527134209465
-0.004261796853005542
0.002357275579255125
0.003268029069054695
-0.004841476180973157
0.004132579306457665
-0.002349639452704756
0.002600245907451381
-0.004383185761204603
0.003557219593943148
-0.002412960829566795
0.002988320542072775
-0.0004406297546295528
0.01788666517540466
0.007364130443537413
-0.02481016586428669
0.002346424679079283
-0.005402691119004805
0.003457519972181836
-0.0004012535322630037
-0.002915994357094444
0.001234295409516575
0.004028123626675283
-0.003746094631723387
0.0003564376524690143
-0.002013034139717132
0.003640026961928543
-0.003956227663992425
0.001600549161386463
-0.001284348459324485
0.0009247639136488896
0.003698492823384831
-0.0006531597096016684
-0.003970097027432552
0.003636195893702743
-0.0039995590975967
0.001288127117540256
0.003682666824345897
-0.003940710477992738
0.001482044081896098
-0.001224000428250549
-0.001347422710362279
0.001010470672419176
0.004019618862290989
-0.003424852081947019
-0.0009842345789593488
0.000468376182911482
0.003267361646649852
0.002820176082108498
-0.001988293683111614
-0.004099244045647096
-0.003630743904883182
0.002166966212656172
0.004731139338883298
0.004788300133391098
0.001138482640646181
-0.0008661812073698224
-0.005060601566668227
0.002110331149480724
0.003390040904294284
-0.0007120719203810448
0.003840874435167909
-0.004490234625420727
0.001787842830896528
-0.001766783008483415
0.004108429673584681
0.0006095893442032262
-0.002951236009305009
-0.002507431654715671
0.003560824728349831
-0.004452382957094916
0.0005760605271808156
-0.0004904031423681236
0.004366725572281401
-0.0009835515367532814
-0.003014852349001681
-0.0004539790713280448
-3.473505581517509e-05
0.00361266918333683
-0.003613792978260637
3.585885073932445e-05
-0.0005607648097660321
-0.003333327927141851
0.003859357681092427
-0.001385757230333306
-0.002642762687189823
0.001014106872566669
0.003014413044955713
0.002722793152517419
-0.0008934850179929818
-0.003215065364846613
-0.005160635724323056
0.003640148258628202
-0.001122275221474555
-0.00485749491673812
-0.001596363131332651
0.002984652546075341
0.003469205501996675
0.005767523299231076
-0.004958627423361377
-0.004648589717105023
0.003839693841235209
-0.00260162530568509
0.003511653688194779
-0.001175509037707472
0.0002575859402927585
-8.868996459707601e-05
-0.00107102334725036
-7.341657915248324e-05
-3.106911132637437e-05
0.007081930112391516
0.00147519672029285
0.001055710516364927
0.005194635273780652
0.0001080567588379027
0.001779238079759222
-0.0002723195172466719
-9.006671781591326e-05
0.0003174995711758188
4.488666388990569e-05
-0.0001161881715312381
-0.0001884349276159333
3.230358192479966e-05
-0.003999410349096063
0.002862366325763123
-0.003575381077772474
0.004712425101122689
-0.002440548839808313
-0.002652350091603007
0.001093488582378208
-0.007485110490356581
0.004725635710219055
-0.009903857573191177
0.01266333235333048
-0.01551361231708243
-0.009592589397719746
0.01762109122450497
-0.005100786403227772
-0.01607273420551462
0.005659908291683041
-0.006159743733288416
0.01100424107508763
0.01576082930976353
-0.02060532665155677
0.00122092108218104
0.01976390667288111
-0.02714457148837238
0.02036028382395227
0.006474175752574117
-0.02561353849432067
-0.02004095278596547
0.001973411666680135
0.007170167153499953
0.01089737396578974
0.0009220221139317755
-0.005577467105605032
-0.01538550779437733
0.00289910881251395
0.002125572753075356
-0.001785633704840652
-0.003239047860748618
0.003264556395701415
0.002093285711355736
-0.002458733294556272
-0.002599283525833129
0.003920438496812169
0.001943401424694141
0.002945935097266167
-0.003825357090311622
-0.0002841346120783219
0.001163556605123638
-4.695277344509361e-05
0.001743365756151096
0.00124952211463735
0.001055404103142679
-0.001880638912251834
-0.003224469546055263
0.004049704355165067
-0.002667274934418135
0.004099069311810379
-0.0003763902742364146
0.004733747241359362
0.002148880807349823
-0.002078039167359139
-0.004804588881350203
-0.01186203701734324
-0.0007273086213647312
0.00732412654003325
-0.007066853024490514
-6.143675143495855e-05
-0.005146186119407521
0.009605529544352958
0.002196519533924774