/*--------------------------------*- C++ -*----------------------------------*\
| =========                 |                                                 |
| \\      /  F ield         | OpenFOAM: The Open Source CFD Toolbox           |
|  \\    /   O peration     | Version:  v1812                                 |
|   \\  /    A nd           | Web:      www.OpenFOAM.com                      |
|    \\/     M anipulation  |                                                 |
\*---------------------------------------------------------------------------*/
FoamFile
{
    version     2.0;
    format      ascii;
    class       volScalarField;
    location    "0";
    object      V;
}
// * * * * * * * * * * * * * * * * * * * * * * * * * * * * * * * * * * * * * //

dimensions      [0 3 0 0 0 0 0];


internalField   nonuniform List<scalar> 
3500
(
2.459904961199765e-05
2.441093650584795e-05
2.296821410137244e-05
2.133307849353635e-05
2.095837474884511e-05
2.158165508831627e-05
2.28765307321129e-05
2.418325146395837e-05
2.536022616875965e-05
2.643782510601096e-05
2.774022284257172e-05
2.945339769378576e-05
3.156341151298152e-05
3.372640902315333e-05
3.548968829650749e-05
3.651541551366204e-05
3.668425957597294e-05
3.668073186984628e-05
3.668083448122249e-05
3.668076928024384e-05
3.668071717290426e-05
3.668081096611546e-05
3.668083848947944e-05
3.668071650486153e-05
3.66807829083172e-05
3.668079520030507e-05
3.668088471804217e-05
3.668067334929574e-05
3.668082940409703e-05
3.668149036565805e-05
3.66802021118941e-05
3.668112427819557e-05
3.668021026201652e-05
3.668065905317934e-05
3.668102888168158e-05
3.668102995055016e-05
3.668065771709384e-05
3.668021159810195e-05
3.668112441180423e-05
3.668020104302563e-05
3.668149036565769e-05
3.668078611492226e-05
3.668147419902203e-05
3.668039758122162e-05
3.668003029128205e-05
3.668087429657442e-05
3.668077502541208e-05
3.668116355911301e-05
3.668090970284337e-05
3.668091063810362e-05
3.6680134238744e-05
3.668055270076337e-05
3.668142222529076e-05
3.668421598748842e-05
3.651548285890421e-05
3.549025365988764e-05
3.372571847941278e-05
3.15623898615887e-05
2.945525484761426e-05
2.774059225714271e-05
2.64380191228385e-05
2.535947279267924e-05
2.418337154140868e-05
2.287689770406409e-05
2.158240316364704e-05
2.09584577282242e-05
2.133230920090638e-05
2.296707607322033e-05
2.441152470626867e-05
2.459905452933032e-05
2.980058630905501e-05
2.957304470491326e-05
2.782733913558156e-05
2.584913533222204e-05
2.539671232217211e-05
2.615227536123023e-05
2.772070740373697e-05
2.930345384415096e-05
3.072913511419602e-05
3.203451845674386e-05
3.361197104532119e-05
3.568656652651652e-05
3.824137404380572e-05
4.086015103409627e-05
4.299492792600736e-05
4.423676791054373e-05
4.444124361919494e-05
4.443697908762559e-05
4.443710340414609e-05
4.443702441135698e-05
4.443696128187398e-05
4.443707491494357e-05
4.443710826026009e-05
4.443696047252166e-05
4.443704092214473e-05
4.443705581422808e-05
4.443716410557223e-05
4.443690835023039e-05
4.443709709119779e-05
4.443789705505727e-05
4.443633791869654e-05
4.443745401558267e-05
4.44363477927949e-05
4.44368910300905e-05
4.443733908754946e-05
4.443733973503129e-05
4.443688941138558e-05
4.443634941149982e-05
4.44374541774531e-05
4.443633727121476e-05
4.443789705505718e-05
4.443704480703617e-05
4.443787682124884e-05
4.443657538267494e-05
4.44361292676615e-05
4.443715180341645e-05
4.443703153365756e-05
4.443750160550062e-05
4.443719453722016e-05
4.443719518470247e-05
4.44362563359799e-05
4.443676169558543e-05
4.443781482485866e-05
4.444119109495136e-05
4.423684615887115e-05
4.299559851671471e-05
4.085930581652797e-05
3.824012069706749e-05
3.568881329824242e-05
3.361246223033592e-05
3.203477430707709e-05
3.072819404119977e-05
2.930356711567826e-05
2.772113931901483e-05
2.615316904913157e-05
2.539678449015337e-05
2.584817614958503e-05
2.782595733999523e-05
2.957374938978601e-05
2.980058450003804e-05
3.610154601741293e-05
3.582638020024593e-05
3.371462269683547e-05
3.132210456312987e-05
3.077624804757817e-05
3.169228064953978e-05
3.359196658370664e-05
3.550893789660185e-05
3.723582092546811e-05
3.88171116641181e-05
4.072760215681759e-05
4.323960390735936e-05
4.633256846816032e-05
4.950272077418084e-05
5.208688893946901e-05
5.359015266307327e-05
5.383775740137041e-05
5.383260449964549e-05
5.383275491643811e-05
5.383265941059975e-05
5.38325829274849e-05
5.383272059709188e-05
5.383276079975437e-05
5.383258175082156e-05
5.383267960998659e-05
5.38326972599362e-05
5.383282845789469e-05
5.383251899544542e-05
5.383274726812633e-05
5.383371566202709e-05
5.383182790186394e-05
5.383317969189142e-05
5.383184123738128e-05
5.383249663884263e-05
5.38330410417317e-05
5.383304045340045e-05
5.383249683495285e-05
5.383184182571321e-05
5.383317969189103e-05
5.38318280979748e-05
5.383371526980596e-05
5.383268392441845e-05
5.383369095209762e-05
5.383211579215229e-05
5.383157589980638e-05
5.383281335738251e-05
5.383266843168503e-05
5.383323715228244e-05
5.383286513056772e-05
5.383286650334181e-05
5.383172984658834e-05
5.383234073095477e-05
5.38336160378669e-05
5.383769390805331e-05
5.359025022449056e-05
5.208770378494192e-05
4.950171004244754e-05
4.633108802965351e-05
4.324233723673848e-05
4.072817090158168e-05
3.881741487872104e-05
3.723470579205233e-05
3.550909587417047e-05
3.359248630651409e-05
3.169335730665711e-05
3.077634972328323e-05
3.132097270066137e-05
3.371297127456408e-05
3.582724549803852e-05
3.610155224699233e-05
4.373406184086796e-05
4.34014620025212e-05
4.084773324098426e-05
3.795517782075738e-05
3.729717535740432e-05
3.840792867576321e-05
4.070870816500102e-05
4.303034086865211e-05
4.512195451213585e-05
4.703740955992448e-05
4.935108600122115e-05
5.239236319037251e-05
5.613626356013705e-05
5.997321216324565e-05
6.310080764643892e-05
6.492020527261527e-05
6.522000453162611e-05
6.52137816935891e-05
6.521396369010031e-05
6.521384798213566e-05
6.521375579591335e-05
6.521392211126266e-05
6.521397058030729e-05
6.521375437035354e-05
6.521387245425118e-05
6.521389383765325e-05
6.521405278760883e-05
6.52136781028861e-05
6.521395537433223e-05
6.521512504642598e-05
6.521284248705181e-05
6.521447760452982e-05
6.521285864339988e-05
6.521365101724315e-05
6.521430962602672e-05
6.521430891324746e-05
6.521365125483637e-05
6.521285864339988e-05
6.521447831730988e-05
6.52128417742716e-05
6.521512575920576e-05
6.521387791889862e-05
6.521509606003615e-05
6.521319032372542e-05
6.521253789236909e-05
6.521403401773355e-05
6.521385891142981e-05
6.521454721938367e-05
6.521409674237917e-05
6.521409911831348e-05
6.52127227400001e-05
6.521346284330515e-05
6.52150055369675e-05
6.5219927665222e-05
6.492032183430418e-05
6.310180051867512e-05
5.997198287485063e-05
5.613444189185239e-05
5.239565776656832e-05
4.935177733598637e-05
4.703778019410756e-05
4.512060896410121e-05
4.303053915415139e-05
4.070935421881582e-05
3.840925152178796e-05
3.729731167321118e-05
3.795378442052296e-05
4.084571577333439e-05
4.34025054826704e-05
4.37340688845278e-05
5.297922759951103e-05
5.257738839018547e-05
4.949039650121158e-05
4.599487444659662e-05
4.520256870548307e-05
4.65496701892625e-05
4.933602581450343e-05
5.214753105998119e-05
5.468078030898691e-05
5.700093050203467e-05
5.980262882758427e-05
6.348415028596583e-05
6.801513905964896e-05
7.265816852598454e-05
7.644264667894338e-05
7.864418805074257e-05
7.90071384762478e-05
7.899962940446266e-05
7.89998493225679e-05
7.899970942701914e-05
7.899959802871203e-05
7.899979894865594e-05
7.899985795809569e-05
7.899959630160652e-05
7.899973878781335e-05
7.899976498224731e-05
7.899995697881291e-05
7.899950418931113e-05
7.899983924778534e-05
7.900125432292315e-05
7.899849296901854e-05
7.900047079271026e-05
7.89985125428818e-05
7.899947281355996e-05
7.900026641855556e-05
7.900026728210772e-05
7.899947079860418e-05
7.899851369428511e-05
7.900047194411421e-05
7.899849181761484e-05
7.900125547432632e-05
7.899974512053367e-05
7.900121920511078e-05
7.899891467062046e-05
7.899812480768801e-05
7.899993452644167e-05
7.899972238031024e-05
7.900055542088182e-05
7.900001051908446e-05
7.900001224619049e-05
7.899834904355699e-05
7.899924368422588e-05
7.90011092460578e-05
7.900704608700122e-05
7.864433025226843e-05
7.644384049761825e-05
7.265668330317125e-05
6.801295898110595e-05
6.348815581795623e-05
5.980348649997837e-05
5.700139528437571e-05
5.467913686721638e-05
5.214775136343548e-05
4.933680085077979e-05
4.65512585357924e-05
4.520273347958983e-05
4.599320122339883e-05
4.948794988105831e-05
5.257864300211706e-05
5.297922926996203e-05
6.417727347150165e-05
6.369207611819145e-05
5.996227116258144e-05
5.574039461172753e-05
5.4787650897573e-05
5.642175225467962e-05
5.979589019554597e-05
6.320031557388676e-05
6.626823693591498e-05
6.907846547097983e-05
7.247078421671385e-05
7.692654785373342e-05
8.240883074306569e-05
8.802586369072621e-05
9.260398313288335e-05
9.526722721336474e-05
9.570656223705331e-05
9.569750907509117e-05
9.569777411700032e-05
9.569760567589201e-05
9.56974703650225e-05
9.569771343635238e-05
9.569778492792047e-05
9.569746862132579e-05
9.569764089856707e-05
9.56976726338481e-05
9.569790454551853e-05
9.569735737347188e-05
9.56977619111227e-05
9.569947422135353e-05
9.569613260085853e-05
9.569852669652764e-05
9.569615771009218e-05
9.569731970962106e-05
9.569827874284686e-05
9.569827978906375e-05
9.569731831466413e-05
9.569615875630991e-05
9.569852669652731e-05
9.569613399581638e-05
9.569947422135321e-05
9.569764857083273e-05
9.569943062893425e-05
9.569664350401292e-05
9.569569039935707e-05
9.56978776925888e-05
9.569762102042329e-05
9.569862783094044e-05
9.569796975977796e-05
9.56979708059963e-05
9.569596102109624e-05
9.569704315931343e-05
9.569929601554319e-05
9.570645077650898e-05
9.526740079327234e-05
9.260542761884464e-05
8.802407334440444e-05
8.240618719593178e-05
7.693136400211366e-05
7.247178589490778e-05
6.907898821758093e-05
6.626625587731169e-05
6.320059157085006e-05
5.979682169822459e-05
5.642366571692275e-05
5.4787847009575e-05
5.57383885390503e-05
5.995932929127749e-05
6.369360496207961e-05
6.417728432097558e-05
7.774004370583863e-05
7.715462001047136e-05
7.265077898226754e-05
6.755500207647361e-05
6.64112349347793e-05
6.839400275387425e-05
7.247949736245784e-05
7.660142599083791e-05
8.031656548463683e-05
8.372021133787853e-05
8.782713522444046e-05
9.321880788452157e-05
9.985028907595468e-05
0.0001066435449108535
0.0001121799511576164
0.0001154007064766247
0.0001159324016683609
0.0001159214980445892
0.0001159218183051786
0.0001159216146566246
0.0001159214511462706
0.0001159217452114028
0.0001159218309804001
0.0001159214494562414
0.0001159216569073616
0.0001159216962005478
0.0001159219759004292
0.0001159213142538816
0.000115921803939928
0.0001159238716910163
0.0001159198354780725
0.0001159227279635551
0.0001159198642085737
0.0001159212690455931
0.0001159224292508415
0.0001159224292508413
0.0001159212673555632
0.0001159198650535884
0.0001159227283860621
0.0001159198367455951
0.0001159238716910159
0.0001159216674700467
0.0001159238188775947
0.0001159204523388386
0.0001159192997387216
0.0001159219433673618
0.0001159216340919639
0.0001159228488006636
0.0001159220549093087
0.0001159220565993381
0.0001159196271819365
0.0001159209356872742
0.0001159236570572704
0.0001159322666864316
0.0001154009136471727
0.0001121817037862846
0.0001066413807105506
9.984709720239744e-05
9.322465134473379e-05
8.782837379861222e-05
8.372087928746909e-05
8.03141880949416e-05
7.660176895559856e-05
7.248064221247807e-05
6.839633105473435e-05
6.641146866827316e-05
6.755255674935667e-05
7.26472063939079e-05
7.715645617435615e-05
7.774005011095178e-05
9.416584921543632e-05
9.346013393176866e-05
8.802550893269731e-05
8.187993957260455e-05
8.050966198082615e-05
8.291624978474317e-05
8.786246873169597e-05
9.285244626541735e-05
9.735090197979712e-05
0.0001014730066822859
0.0001064443003775082
0.0001129667691288833
0.0001209856328893648
0.0001291983318315601
0.0001358910158753841
0.0001397844710104436
0.0001404277968588781
0.0001404146802240111
0.0001404150677166936
0.000140414821502717
0.0001404146244291601
0.000140414979161563
0.000140415083073075
0.0001404146223816426
0.0001404148726906536
0.0001404149197835563
0.0001404152581358194
0.000140414458580244
0.0001404150492890366
0.0001404175477722389
0.0001404126741687622
0.0001404161667217004
0.0001404127069290416
0.0001404144032972722
0.0001404158053348655
0.0001404158053348655
0.0001404144012497543
0.0001404127100003181
0.0001404161677454588
0.0001404126731450032
0.0001404175477722395
0.0001404148839519999
0.0001404174858348358
0.0001404134194651236
0.0001404120225463247
0.000140415218721108
0.0001404148455610474
0.0001404163136310794
0.0001404153518097444
0.0001404153574404171
0.0001404124213003528
0.0001404139994244499
0.0001404172897850368
0.0001404276345224016
0.0001397847216562141
0.0001358931291433247
0.000129195710523229
0.0001209817599994801
0.0001129738076565217
0.0001064457946869973
0.0001014737900471917
9.734800635395204e-05
9.28528492692033e-05
8.786382565395098e-05
8.29190477995408e-05
8.050993582886687e-05
8.18769921342194e-05
8.802120735697705e-05
9.346235574294706e-05
9.416586437301493e-05
0.0001140576044037391
0.0001132077959915593
0.0001066557440914561
9.925145970756973e-05
9.761396280010028e-05
0.0001005360959658949
0.0001065234834212002
0.0001125633123994434
0.0001180095880402239
0.0001230014270930251
0.0001290178986260032
0.0001369058180280399
0.0001465983507993097
0.0001565225494506313
0.0001646091518480221
0.0001693135971485355
0.0001700917745884587
0.0001700760208439578
0.0001700764890617467
0.0001700761907667049
0.0001700759538671082
0.0001700763811546011
0.0001700765076664274
0.0001700759507663279
0.0001700762534024617
0.0001700763092165036
0.0001700767185194717
0.0001700757535567165
0.0001700764648756618
0.0001700794831749754
0.0001700736003750408
0.000170077814955302
0.0001700736382045567
0.000170075686579867
0.0001700773789856248
0.0001700773789856256
0.000170075684719398
0.0001700736419254934
0.000170077815575458
0.0001700736003750409
0.0001700794825548192
0.0001700762651854263
0.0001700794081360981
0.0001700744996012584
0.0001700728133970612
0.0001700766707674587
0.0001700762199140374
0.0001700779910796091
0.000170076831387866
0.0001700768382095819
0.0001700732946381264
0.0001700751997573969
0.0001700791706163456
0.0001700915765250161
0.0001693139011647545
0.000164611696504829
0.0001565193835480388
0.0001465936909936039
0.0001369143109600916
0.0001290196944282901
0.0001230024012344656
0.0001180061209953171
0.0001125638087395106
0.0001065251576095088
0.0001005394958213602
9.761430652306877e-05
9.924790645354695e-05
0.00010665055536914
0.0001132104732976187
0.0001140576081618481
0.0001381443857339966
0.0001371224408343563
0.0001292316503091067
0.0001203216973126006
0.0001183710542398156
0.0001219208105704931
0.000129167213987079
0.000136476330419098
0.0001430691740638145
0.0001491136817671822
0.0001563934217056651
0.0001659289609222993
0.0001776386518802556
0.0001896243600302386
0.0001993895475326085
0.0002050706336061489
0.0002060116121170755
0.0002059927287514585
0.0002059932937562541
0.0002059929331148955
0.0002059926483584887
0.0002059931637750979
0.0002059933155450027
0.0002059926438504712
0.0002059930097511846
0.0002059930766201021
0.0002059935694966263
0.0002059924071795801
0.0002059932637028076
0.0002059969061805334
0.0002059898083077871
0.0002059948910969396
0.0002059898563933023
0.000205992328289282
0.0002059943651616243
0.0002059943674156342
0.0002059923230299288
0.0002059898586473105
0.0002059948941022842
0.0002059898083077872
0.000205996903175188
0.0002059930262805791
0.0002059968122635135
0.0002059908924858721
0.0002059888631268924
0.0002059935123950777
0.0002059929691790317
0.0002059951029737379
0.000205993706991144
0.0002059937152558426
0.0002059894409044031
0.0002059917384903928
0.000205996529761115
0.000206011370758775
0.0002050709976733718
0.0001993926272067456
0.0001896205519711221
0.0001776330363440191
0.0001659392217247266
0.0001563956068759377
0.0001491148333415698
0.0001430649678546084
0.0001364769285508625
0.0001291691927675753
0.0001219248859113467
0.0001183714685168297
0.0001203174156821464
0.0001292253844148553
0.0001371256728410262
0.0001381444006352004
0.0001673077006533008
0.0001660807665359265
0.0001565901202148659
0.000145884335110347
0.0001435698536440716
0.0001478844388067538
0.0001566526804367979
0.0001654956839943808
0.0001734750603239739
0.0001807933952728084
0.000189599238909495
0.0002011211419098514
0.0002152591926369234
0.0002297248126677484
0.0002415087099183457
0.000248364386352755
0.0002495017580102412
0.0002494791780445361
0.0002494798571018858
0.0002494794247262275
0.0002494790806462306
0.0002494797014466488
0.0002494798834995573
0.0002494790751846428
0.0002494795166629469
0.0002494795967662265
0.0002494801902587079
0.000249478789361577
0.0002494798225118328
0.0002494842099869303
0.000249475657141284
0.0002494817823113948
0.0002494757217700657
0.0002494786937837998
0.0002494811487672712
0.0002494811505878016
0.0002494786901427425
0.0002494757181290088
0.0002494817859524513
0.0002494756571412847
0.000249484207256137
0.0002494795357785012
0.0002494840962038628
0.0002494769679222263
0.0002494745184003411
0.0002494801247196608
0.0002494794638676027
0.000249482041736789
0.0002494803541063252
0.0002494803650295004
0.0002494752183937745
0.0002494779810466631
0.0002494837584957173
0.0002495014683067617
0.0002483648256898304
0.0002415124145731255
0.0002297202107147607
0.0002152524063131394
0.0002011334870847922
0.0001896018534043642
0.0001807948066650616
0.0001734700032622856
0.0001654964064464461
0.0001566550907180876
0.0001478893516648777
0.0001435703505929968
0.0001458791786691863
0.0001565825835452789
0.0001660846628764146
0.000167307720262818
0.000202612716719489
0.0002011426735939874
0.0001897461568306754
0.0001769062321972377
0.0001741737609701013
0.0001794214926906095
0.0001900283437756306
0.0002007239890100571
0.0002103794382116667
0.0002192388255272717
0.0002298871318861872
0.0002438012259813793
0.0002608585930389241
0.0002783027854296994
0.0002925104624245948
0.0003007765016507548
0.0003021505689878132
0.0003021236510013878
0.0003021244670812828
0.0003021239476574576
0.0003021235330006457
0.0003021242796034691
0.0003021245001656027
0.0003021235263837812
0.0003021240579385246
0.0003021241549858636
0.0003021248685043659
0.0003021231823068529
0.0003021244295857205
0.00030212970102072
0.0003021194173112273
0.0003021267829836894
0.0003021194923023527
0.0003021230654089212
0.0003021260231471366
0.0003021260220443264
0.0003021230654089237
0.0003021194878911097
0.000302126782983688
0.0003021194184140391
0.00030212970102072
0.0003021240822003578
0.000302129566477819
0.0003021209899192432
0.0003021180476203757
0.0003021247857935643
0.0003021239939755066
0.0003021270983875409
0.0003021250648046671
0.0003021250791412025
0.0003021188857564853
0.0003021222096278426
0.0003021291617463025
0.0003021502219139128
0.0003007770287625355
0.0002925149239492084
0.0002782972642850133
0.0002608504386348745
0.0002438160856133692
0.0002298902788852621
0.0002192405116881887
0.0002103733493038639
0.0002007248480224208
0.0001900312409511998
0.0001794274211845049
0.0001741743557387023
0.0001769000077952063
0.0001897370746379005
0.0002011473588286927
0.0002026127345964434
0.0002453458516655512
0.0002435889463311275
0.0002299309921233905
0.0002145665211879375
0.0002113611337554696
0.0002177489825991041
0.0002305758274407877
0.0002435076257437875
0.0002551881673310997
0.0002659113224932961
0.0002787823731327675
0.0002955736174646861
0.000316134467683151
0.000337149242549625
0.0003542611970344502
0.0003642173067234342
0.000365876320850391
0.0003658443458065948
0.0003658453291656173
0.0003658447038775427
0.0003658442055176031
0.0003658451033671467
0.0003658453679121007
0.0003658441988371731
0.0003658448361500212
0.0003658449523894702
0.0003658458101564446
0.0003658437859867146
0.0003658452864108778
0.0003658516141124216
0.0003658392606646863
0.0003658481122319844
0.000365839347510253
0.0003658436456977227
0.0003658471956772437
0.0003658471970133285
0.0003658436416894664
0.0003658393501824222
0.0003658481122319865
0.0003658392606646862
0.000365851615448507
0.0003658448682160757
0.0003658514524460591
0.0003658411498897666
0.000365837615943278
0.0003658457072778488
0.0003658447666735666
0.0003658484849998748
0.0003658460506518588
0.0003658460613405446
0.0003658386206796694
0.0003658426209200453
0.00036585096611089
0.0003658758992830473
0.0003642179433995716
0.0003542665545681706
0.0003371426061458621
0.0003161246536743988
0.0002955914623444091
0.0002787861467679969
0.0002659133645128872
0.0002551808778700109
0.0002435086747267784
0.0002305793158050949
0.0002177561079365336
0.0002113618530036673
0.0002145590613556376
0.0002299200890983843
0.0002435945691759373
0.0002453458770507989
0.0002970597322874711
0.0002949665509425753
0.0002786386040449485
0.0002603051421408887
0.0002565759656291609
0.000264359172226672
0.000279864531482413
0.0002954932034576438
0.0003096190995025746
0.0003225954546069299
0.0003381455498016175
0.0003583916486982379
0.0003831481201639152
0.0004084329327079887
0.0004290162308148906
0.0004409925775063212
0.0004429941385966866
0.0004429563399670699
0.0004429575216214968
0.000442956770542518
0.0004429561716217815
0.0004429572496791076
0.0004429575669452286
0.000442956163528257
0.0004429569291755781
0.0004429570683841832
0.000442958096261663
0.0004429556698233248
0.0004429574649668334
0.0004429650599292606
0.0004429502390690747
0.0004429608642466914
0.0004429503426661745
0.0004429555030967419
0.0004429597602900891
0.00044295976029009
0.000442955493384512
0.0004429503523784028
0.000442960857771874
0.0004429502390690733
0.0004429650615479668
0.000442956959930969
0.0004429648705408107
0.0004429525101117616
0.0004429482674867575
0.0004429579732401056
0.000442956845002933
0.0004429613045343704
0.0004429583892472113
0.0004429583941033286
0.0004429494750404584
0.0004429542744998774
0.0004429642748574853
0.0004429936341485337
0.0004409933448755366
0.0004290226572622638
0.0004084249802146645
0.0003831363543948274
0.0003584130633909472
0.0003381500935407199
0.0003225978851205285
0.000309610338747507
0.0002954944542638924
0.0002798687058579409
0.0002643677042175798
0.0002565768386509792
0.0002602961956156866
0.0002786255226485061
0.0002949732984334309
0.0002970597650911046
0.0003596266759643428
0.0003571426280541935
0.0003376823801832349
0.0003158833532265259
0.0003115917331853031
0.000321086104925439
0.0003398203224137962
0.0003586982934698364
0.0003757749301382617
0.0003914740764656943
0.0004102495341478038
0.0004346359102985057
0.0004644036586512379
0.0004947797959445241
0.0005194993430694182
0.0005338831461025719
0.0005362957931822759
0.0005362513845013938
0.0005362527945362521
0.0005362518963499313
0.000536251180546422
0.0005362524689927365
0.000536252849447208
0.0005362511707408944
0.0005362520865771648
0.0005362522532711318
0.0005362534828842846
0.0005362505784870304
0.000536252725897562
0.0005362618136604679
0.0005362440891889175
0.0005362567853859528
0.0005362442107774571
0.0005362503764931651
0.0005362554773285833
0.0005362554734063729
0.000536250370609847
0.0005362442205829808
0.0005362567834248518
0.0005362440813444936
0.0005362618136604703
0.0005362521257992741
0.0005362615900944415
0.0005362467915923037
0.0005362417339012037
0.0005362533318791597
0.0005362519806774674
0.0005362573246899685
0.0005362538299999609
0.0005362538496110116
0.0005362431615860109
0.0005362489076251436
0.0005362608742909333
0.0005362951969246871
0.0005338840691007144
0.0005195070326186203
0.0004947702851019519
0.0004643895919243946
0.0004346615252399372
0.0004102549761549411
0.0003914769913798775
0.0003757644524502535
0.0003586998006782341
0.000339825336392302
0.0003210963403097014
0.0003115928117258256
0.0003158726671948093
0.0003376667306843154
0.000357150693883988
0.0003596267032835703
0.0004353022164030395
0.0004323689192444673
0.0004092642054879926
0.0003834595068762678
0.0003785923770268974
0.0003901901797877197
0.0004128124117119172
0.000435600518876022
0.0004562346138733
0.0004752221673240895
0.0004978753463260609
0.0005272112140247364
0.0005629448238084845
0.0005993689605136199
0.0006289978539265339
0.0006462394719037326
0.0006491444097143858
0.0006490926357051238
0.0006490943131142202
0.0006490932439441163
0.0006490923909839648
0.0006490939258370475
0.0006490943820162945
0.0006490923791042972
0.0006490934696578054
0.0006490936668602914
0.0006490951399390995
0.0006490916687001617
0.0006490942394602786
0.0006491050737173357
0.0006490839326604744
0.0006490990673572852
0.0006490840799683532
0.000649091423979004
0.0006490975158726676
0.0006490975134967313
0.00064909142160307
0.0006490840918480244
0.0006490990744850832
0.0006490839207808081
0.0006491050760932683
0.0006490935171764747
0.0006491048052368463
0.0006490871544263888
0.0006490811219310622
0.0006490949593681513
0.0006490933413573919
0.0006490997207390142
0.0006490955462237413
0.0006490955723590099
0.0006490828254754328
0.0006490896824197
0.0006491039546526301
0.0006491437006276099
0.0006462405710367144
0.0006290070280442068
0.0005993575942889696
0.0005629280071400963
0.0005272417715766914
0.0004978818673664692
0.0004752256812673923
0.0004562221182648357
0.0004356023009111047
0.0004128184142318719
0.0003902023975105622
0.0003785936583609428
0.0003834467784250975
0.0004092455347885843
0.0004323785413014956
0.0004353022653543504
0.000526800233340449
0.0005233582950927697
0.0004960589668625004
0.0004656845014656567
0.0004602755784900555
0.0004744662497680042
0.0005017639225525727
0.0005292504073413823
0.0005541688641304091
0.0005771252702240226
0.0006044325364045302
0.0006396671109117845
0.0006824737543450932
0.0007260486610709125
0.0007614758934313111
0.000782093410758712
0.0007855863307607294
0.0007855265736973739
0.0007855285685042718
0.0007855272990816986
0.0007855262829679426
0.0007855281108213
0.0007855286519810388
0.0007855262685753969
0.000785527566783057
0.0007855278028208162
0.0007855295529544243
0.0007855254280506991
0.0007855284763919748
0.0007855413634777989
0.0007855162312137122
0.0007855342218963968
0.0007855164039242613
0.0007855251430782876
0.0007855323681364561
0.0007855323710149568
0.0007855251401997802
0.0007855164154383044
0.0007855342305319253
0.0007855162196996706
0.0007855413663563068
0.0007855276185962241
0.0007855410468417816
0.000785520053873971
0.0007855128806289623
0.0007855293428232522
0.0007855274171005819
0.0007855350019723963
0.0007855300365439827
0.000785530056693539
0.0007855149128564847
0.0007855230734301474
0.0007855400307280248
0.0007855854797047245
0.0007820947213862032
0.0007614868316787147
0.0007260351602441816
0.0006824537374871452
0.0006397034088976524
0.0006044402762174314
0.0005771294660840733
0.0005541540609361555
0.000529252535445399
0.0005017710552725404
0.0004744808123630553
0.0004602771201375655
0.0004656693615840326
0.0004960367625403015
0.0005233697111559667
0.0005268002806398775
0.0006373810913039555
0.0006333752258992095
0.000601318048288693
0.0005658229002732751
0.0005599857290766604
0.0005773830282597464
0.0006102937807685776
0.0006434154383505271
0.0006734869537891845
0.000701229485286115
0.000734110881031952
0.0007763484653539855
0.0008274971087769596
0.0008794762522633681
0.0009217089399809247
0.0009462895917769338
0.0009504824669891345
0.0009504144281569845
0.0009504167960972034
0.000950415289543185
0.0009504140898798125
0.0009504162520638064
0.0009504168902568274
0.0009504140724428433
0.000950415606896001
0.0009504158893748793
0.0009504179573992522
0.0009504130785356813
0.0009504166740384253
0.0009504319418473699
0.0009504021874056395
0.0009504234884054119
0.0009504024001366469
0.0009504127472332979
0.0009504212808852984
0.0009504212948348745
0.0009504127472332939
0.0009504024001366513
0.0009504234988675912
0.0009504021769434622
0.0009504319418473665
0.0009504156731564808
0.0009504315547466835
0.0009504067105550657
0.0009503982292139689
0.0009504177167690958
0.0009504154255515415
0.0009504244090773109
0.0009504185293317918
0.0009504185537435478
0.0009504006285407244
0.0009504102921082376
0.0009504303655454893
0.0009504814560683842
0.0009462911253092091
0.0009217218978789193
0.0008794602811849217
0.0008274734317025679
0.0007763914395789128
0.0007341200738120186
0.0007012344604598298
0.0006734694545997544
0.0006434180181706525
0.0006103022563478942
0.0005774002870589487
0.0005599875870267866
0.0005658050170195912
0.0006012917582593053
0.0006333887302896775
0.0006373811484554849
0.0007709543080032665
0.0007663420099850307
0.0007289961717319134
0.0006879073469846437
0.0006818862441331959
0.0007032643416604264
0.000742900119276364
0.0007827652065420844
0.0008190246352615759
0.0008525330381785363
0.0008920731202241086
0.0009425844921603877
0.001003506275668277
0.001065287022423691
0.001115442668866567
0.001144638567553416
0.00114966125950068
0.001149585244582781
0.001149588033131441
0.001149586254375398
0.001149584847425849
0.001149587386695158
0.001149588138758284
0.001149584826300481
0.001149586630406963
0.001149586959962712
0.00114958939360518
0.001149583651729985
0.001149587889478935
0.001149605850267359
0.001149570841306434
0.001149595904443799
0.00114957108636071
0.001149583258798128
0.001149593310248525
0.001149593322923752
0.001149583258798128
0.001149571086360707
0.0011495959213441
0.001149570824406132
0.001149605850267362
0.001149586710683365
0.001149605398184471
0.001149576169124405
0.001149566181050104
0.001149589114750319
0.001149586410703136
0.001149596977612524
0.001149590065391904
0.001149590094967423
0.001149569016074581
0.001149580373072769
0.001149603999685061
0.001149660083809982
0.001144640387816689
0.00111545793175761
0.001065268242430465
0.001003478382030456
0.0009426350437717465
0.0008920839606382062
0.0008525389443829777
0.0008190040472106
0.0007827682268771135
0.0007429100914429529
0.0007032846899484792
0.0006818885107133688
0.0006878863670250726
0.0007289652499535014
0.0007663578941520218
0.0007709543662513998
0.0009321969638224136
0.0009269626762692068
0.0008839076027729334