/*--------------------------------*- C++ -*----------------------------------*\
| =========                 |                                                 |
| \\      /  F ield         | OpenFOAM: The Open Source CFD Toolbox           |
|  \\    /   O peration     | Version:  v1812                                 |
|   \\  /    A nd           | Web:      www.OpenFOAM.com                      |
|    \\/     M anipulation  |                                                 |
\*---------------------------------------------------------------------------*/
FoamFile
{
    version     2.0;
    format      ascii;
    class       volVectorField;
    location    "0";
    object      wallShearStress;
}
// * * * * * * * * * * * * * * * * * * * * * * * * * * * * * * * * * * * * * //

dimensions      [0 2 -2 0 0 0 0];


internalField   uniform (0 0 0);

boundaryField
{
    inlet
    {
        type            cyclic;
    }
    outlet
    {
        type            cyclic;
    }
    topWall
    {
        type            calculated;
        value           nonuniform List<vector> 
70
(
(-0.0001562266985555544 0 0)
(-0.0001554726561523734 1.219345473680557e-22 0)
(-0.0001527361339395551 0 0)
(-0.0001480392165559455 -1.161225176898406e-22 0)
(-0.0001425693205386908 0 0)
(-0.0001371514062841769 0 0)
(-0.0001321160005360233 0 0)
(-0.0001275308358961345 0 0)
(-0.0001233298660832353 0 0)
(-0.0001194423998238471 0 0)
(-0.0001158553490897286 0 0)
(-0.0001126257742093202 -8.83386284093582e-23 0)
(-0.0001098488110430118 8.615804110519076e-23 0)
(-0.0001076227565344376 0 0)
(-0.0001060194535564056 0 0)
(-0.0001050952460200516 0 0)
(-0.0001047961987638447 8.218894847984283e-23 0)
(-0.000104782633547214 0 0)
(-0.0001047826338188676 0 0)
(-0.0001047826335472489 0 0)
(-0.0001047826338189024 0 0)
(-0.0001047826338188328 0 0)
(-0.0001047826335472489 0 0)
(-0.0001047826338189024 0 0)
(-0.0001047826335471792 0 0)
(-0.0001047826338188328 0 0)
(-0.000104782633547214 0 0)
(-0.0001047826336831453 0 0)
(-0.000104782634090556 0 0)
(-0.0001047826330039766 0 0)
(-0.0001047826342263479 0 0)
(-0.0001047826334114569 0 0)
(-0.0001047826342263131 0 0)
(-0.0001047826334113873 0 0)
(-0.0001047826336831453 0 0)
(-0.0001047826336831105 0 0)
(-0.0001047826334113873 0 0)
(-0.0001047826342263479 0 0)
(-0.0001047826334114569 0 0)
(-0.0001047826342262783 0 0)
(-0.0001047826330040462 0 0)
(-0.000104782634090556 0 0)
(-0.0001047826331399078 0 0)
(-0.000104782634090556 0 0)
(-0.0001047826340905212 0 0)
(-0.000104782633547214 0 0)
(-0.0001047826335473185 0 0)
(-0.0001047826335472489 0 0)
(-0.0001047826336831105 0 0)
(-0.0001047826335472837 0 0)
(-0.0001047826340905212 0 0)
(-0.0001047826335472489 0 0)
(-0.0001047826335472489 0 0)
(-0.0001047961988996718 -8.218894879941105e-23 0)
(-0.0001050952260669524 8.242371707535829e-23 0)
(-0.0001060193935658193 -8.31498372313613e-23 0)
(-0.0001076227358746734 8.440947946390308e-23 0)
(-0.0001098489184052713 -1.723162518118426e-22 0)
(-0.0001126258196066799 8.833866130161577e-23 0)
(-0.0001158552293276267 9.087358032041763e-23 0)
(-0.0001194422219135137 0 0)
(-0.0001233297033158664 -9.673856930293495e-23 0)
(-0.0001275307193684237 1.000350660993779e-22 0)
(-0.0001321158446451502 0 0)
(-0.0001371511380409557 -1.075851324697446e-22 0)
(-0.0001425689575051444 0 0)
(-0.000148038942077693 0 0)
(-0.0001527361752859081 1.19797070805026e-22 0)
(-0.0001554727850783649 -1.21934647127837e-22 0)
(-0.0001562266985553221 0 0)
)
;
    }
    bottomWall
    {
        type            calculated;
        value           nonuniform List<vector> 
70
(
(-0.0001562351823229038 -2.782750563363427e-07 -0)
(-0.0001581304982552008 -7.19247656386778e-06 -1.443484316753049e-22)
(-0.0001755209883161247 -2.021038105803968e-05 -6.852646184816394e-22)
(-0.000199351584170392 -2.803591738622836e-05 -1.464006642658043e-21)
(-0.0002079083042836441 -2.996302300374284e-05 -7.402416534595727e-22)
(-0.0002031898184323678 -2.932600548301894e-05 -1.304378604319835e-21)
(-0.0001907739485460072 -2.750814852387524e-05 -0)
(-0.0001795300812975241 -2.582617672531141e-05 -0)
(-0.0001706165565405633 -2.448758387123737e-05 -1.436337450304884e-21)
(-0.0001633370807741223 -2.340462677184042e-05 4.661258566481745e-22)
(-0.0001547698434299576 -2.20461723259818e-05 2.533693054939852e-21)
(-0.0001438582942049963 -2.007400345285745e-05 -1.116774183959001e-21)
(-0.0001313111776819742 -1.72372430047485e-05 1.812795571258722e-22)
(-0.0001195898631235787 -1.355738353324858e-05 -3.891227239359997e-22)
(-0.000110740306367487 -9.207740598326347e-06 -1.230234795399702e-23)
(-0.000105661842566733 -4.187073419476776e-06 1.395615677183039e-22)
(-0.0001047693067466666 -1.997476049444137e-07 -0)
(-0.0001047846777059206 0 0)
(-0.0001047846777031945 0 0)
(-0.0001047846777049268 0 0)
(-0.0001047846777063112 0 0)
(-0.0001047846777038194 0 0)
(-0.0001047846777030881 0 0)
(-0.0001047846775791027 0 0)
(-0.0001047846777045648 0 0)
(-0.0001047846777042382 0 0)
(-0.0001047846777018598 0 0)
(-0.0001047846777074756 0 0)
(-0.0001047846774488775 0 0)
(-0.0001047846783218873 0 0)
(-0.0001047846773383115 0 0)
(-0.0001047846778227201 0 0)
(-0.0001047846777197792 0 0)
(-0.0001047846773261758 0 0)
(-0.0001047846778252549 0 0)
(-0.0001047846778252265 0 0)
(-0.0001047846778351174 0 0)
(-0.0001047846772108316 0 0)
(-0.0001047846779499414 0 0)
(-0.0001047846773383398 0 0)
(-0.0001047846780674413 1.619692246839235e-20 -1.038819236020034e-35)
(-0.0001047846774500285 -1.619723363052982e-20 1.028196891053079e-35)
(-0.0001047846781950934 0 0)
(-0.0001047846774603475 0 0)
(-0.0001047846773428748 0 0)
(-0.0001047846777021368 0 0)
(-0.0001047846778320003 0 0)
(-0.0001047846778216763 0 0)
(-0.0001047846778284218 0 0)
(-0.0001047846777011711 0 0)
(-0.0001047846773401142 0 0)
(-0.0001047846778379081 0 0)
(-0.0001047846778148033 0 0)
(-0.0001047693058364108 1.99757788141859e-07 -1.296104608397686e-24)
(-0.0001056617044176468 4.186812304045415e-06 -5.434604902456025e-24)
(-0.0001107395268976616 9.207205722460699e-06 4.422166923959207e-22)
(-0.0001195921939377615 1.355846176980079e-05 -9.729069391238956e-23)
(-0.0001313151186586181 1.723840934612187e-05 -1.435240623869374e-21)
(-0.0001438485683503192 2.007177186054477e-05 1.116572095531166e-21)
(-0.0001547673004815759 2.204569300537135e-05 -4.324508710414912e-22)
(-0.000163336687340325 2.340457092347873e-05 0)
(-0.0001706203207426794 2.448825692347804e-05 2.975453595112848e-21)
(-0.0001795290116062547 2.582600777769237e-05 -1.638364599276211e-21)
(-0.000190770886670999 2.750767582614211e-05 2.099189947425861e-21)
(-0.0002031835353406899 2.932508247468113e-05 -5.487643175065341e-21)
(-0.0002079069254462401 2.99628211149773e-05 -1.664938113234886e-21)
(-0.000199357984745792 2.803731866375675e-05 0)
(-0.0001755276448151856 2.021303610856868e-05 -5.109618176393421e-22)
(-0.0001581297114434377 7.191201881521294e-06 0)
(-0.000156235174973016 2.781847426202037e-07 1.839365171787676e-24)
)
;
    }
    front
    {
        type            symmetry;
    }
    back
    {
        type            symmetry;
    }
}


// ************************************************************************* //
