/*--------------------------------*- C++ -*----------------------------------*\
| =========                 |                                                 |
| \\      /  F ield         | OpenFOAM: The Open Source CFD Toolbox           |
|  \\    /   O peration     | Version:  v1812                                 |
|   \\  /    A nd           | Web:      www.OpenFOAM.com                      |
|    \\/     M anipulation  |                                                 |
\*---------------------------------------------------------------------------*/
FoamFile
{
    version     2.0;
    format      ascii;
    class       volScalarField;
    location    "1732";
    object      k;
}
// * * * * * * * * * * * * * * * * * * * * * * * * * * * * * * * * * * * * * //

dimensions      [0 2 -2 0 0 0 0];


internalField   nonuniform List<scalar> 
44936
(
4.931846962756519e-05
5.071474427747218e-05
3.874594628034541e-05
3.87332031991247e-05
3.876311568334875e-05
3.960637055053456e-05
3.961221634801569e-05
3.898312438796517e-05
3.903014150588893e-05
3.902860281898817e-05
3.898015694712045e-05
4.075136264489625e-05
4.062798112024826e-05
4.086320333857055e-05
0.01537835396796423
0.01483845929205641
0.01548110400407231
0.01803794378624287
0.01703627480469241
0.02551599726874139
0.02511433037384207
0.02577521741976082
5.975447745563115e-05
6.716009125561321e-05
7.064928282586866e-05
7.783350719857017e-05
4.715614976649107e-05
9.533371368754926e-05
0.0001216024352209343
5.988286404738465e-05
5.98540818381069e-05
7.380712665817407e-05
6.185190119505572e-05
7.844624916814372e-05
7.969635437818728e-05
6.920880426023834e-05
6.925781049953762e-05
0.02137951304442324
0.02880091087786331
0.02432852146658053
0.02180947826288328
0.01877555661849958
0.01961523205781238
0.01732279836772083
0.02365253804954323
0.024361718023539
0.02214324222431265
3.907280606958939e-05
3.957768975738035e-05
3.903539233740924e-05
4.975222394692346e-05
4.753320314702105e-05
4.564224149317809e-05
4.298637838750693e-05
4.284909591800718e-05
4.245541460746848e-05
4.174032955320312e-05
4.114338042694415e-05
4.182783632458232e-05
0.02715445597863961
0.02630541331641918
0.02575358065299398
3.92706720982448e-05
3.943643668249182e-05
3.965244747150945e-05
3.952518715780749e-05
4.002406836557435e-05
4.039643843009562e-05
0.0002349035459177653
0.000776690764741733
3.985508562868201e-05
3.976281028397191e-05
0.03086716210304059
0.03118974627513041
0.02673152906956043
0.02477495756057637
0.02511022667717231
0.02742864940446892
3.87164371060932e-05
3.875834766302192e-05
0.03022854755859116
0.03098407941941669
4.238085051585167e-05
4.144771823003456e-05
4.074387157121273e-05
4.063305751477071e-05
5.549000731905234e-05
5.522735576354929e-05
5.918896316232022e-05
3.747645327462361e-05
3.747487958979121e-05
3.775962663066804e-05
3.772500586243208e-05
3.768003209459362e-05
3.771748599445022e-05
3.746587144113435e-05
3.746231509062325e-05
3.784091330057796e-05
3.773663899406452e-05
3.77814460053469e-05
3.790774143433918e-05
3.792226775892564e-05
3.791061562962625e-05
3.795034660324692e-05
3.786548900127694e-05
3.780034798134199e-05
3.790209823314666e-05
3.786978475940703e-05
3.746222614751405e-05
3.746112330961012e-05
3.810174433274898e-05
3.807635923639986e-05
3.807923837368679e-05
3.810851733202383e-05
3.809153284714155e-05
3.827742480110349e-05
3.83047804967558e-05
3.830551635350877e-05
3.836502806955972e-05
3.832442900345963e-05
3.811820554637546e-05
3.813302521546317e-05
3.8417660839536e-05
3.817124717384239e-05
3.81999675374206e-05
3.823108942876163e-05
3.823727119777174e-05
3.82120808109981e-05
3.820132095183306e-05
3.807373422711429e-05
3.810450128893969e-05
3.808576717554512e-05
3.838713207901591e-05
3.81477551920057e-05
3.859853397171518e-05
3.85536077642079e-05
3.844928277899903e-05
3.850606032914207e-05
3.797425037900654e-05
3.794711810659239e-05
3.793454897428053e-05
3.838145414139673e-05
3.837414247608118e-05
3.841689950258624e-05
3.842002171136049e-05
3.886130769227665e-05
3.892772053574794e-05
3.890155807971157e-05
3.882389481335886e-05
3.829931965486919e-05
3.825638099746613e-05
3.731356388455336e-05
3.732411641228885e-05
3.744236465017587e-05
3.806421606427106e-05
3.807302155734307e-05
3.747446391454317e-05
3.746617816027571e-05
3.815091158130478e-05
3.813940894309838e-05
3.853303780629012e-05
3.856479330117464e-05
3.845241397918352e-05
3.838997917246086e-05
3.835968095580913e-05
3.837132938882033e-05
3.841527800588011e-05
3.909363500539785e-05
3.910865892109377e-05
3.853937713896742e-05
3.861000065609202e-05
3.85616525462595e-05
3.814277927570069e-05
3.815543826266466e-05
3.810366598986209e-05
3.804412173178516e-05
3.803918177393316e-05
3.809932057589527e-05
3.812557158835787e-05
3.811349272630073e-05
3.922024402635327e-05
3.918132585658218e-05
3.888116023058732e-05
3.880797013488667e-05
3.873685333470382e-05
3.822803952243972e-05
3.824355347872206e-05
3.818734909005252e-05
3.826096520725846e-05
3.822611872566389e-05
3.821657086693632e-05
3.882538474383699e-05
3.86879733572872e-05
3.865932616389466e-05
3.945264860362526e-05
3.938102987359291e-05
3.847129743207554e-05
3.851123161089008e-05
3.869503944594245e-05
3.869636814355465e-05
3.8294057433708e-05
3.828792669636147e-05
3.822783105027432e-05
3.848946626147538e-05
3.857557231588077e-05
3.82039520452323e-05
3.817792671685129e-05
4.082713949638533e-05
4.018314664924206e-05
3.950932064708406e-05
3.841705013016925e-05
3.836690745091757e-05
3.867378190365325e-05
3.859828388630171e-05
3.862888182775885e-05
3.826704867257087e-05
3.824241270108788e-05
3.839955312340749e-05
3.839605044680674e-05
3.867820272815067e-05
3.862278528044257e-05
3.864851407078003e-05
3.869678507160516e-05
3.861609040034855e-05
3.855545382024226e-05
3.846881783179886e-05
3.842501433969115e-05
3.920239564474735e-05
3.91337012936339e-05
3.716266371686005e-05
3.715353732057481e-05
3.879660981093237e-05
3.885557035995751e-05
3.729749357776331e-05
3.737378857182846e-05
3.869477298093732e-05
3.868382362124724e-05
3.868758722356047e-05
3.995831732198124e-05
3.993816551199996e-05
3.846091329591465e-05
3.844002041583543e-05
3.832483161842754e-05
3.829266759798234e-05
3.977764698033513e-05
3.986672098988032e-05
3.969724395388275e-05
3.970877310077709e-05
3.980470689196363e-05
3.978957623497622e-05
3.860260660492568e-05
3.859644095621584e-05
4.000765302202999e-05
3.99896833310539e-05
3.99028624837011e-05
3.927403671481222e-05
3.951597125464342e-05
3.955663940685609e-05
3.938995820111407e-05
3.932451714740832e-05
3.89863419729896e-05
3.903172540586075e-05
3.901615190013128e-05
3.860566494643582e-05
3.857808224790852e-05
3.686598841205293e-05
3.685899475679849e-05
3.686126130498318e-05
3.685491713749384e-05
3.684275943594362e-05
3.684962820314398e-05
3.735398881584584e-05
3.735333509358185e-05
3.972040103254556e-05
3.962503584158766e-05
3.961548435750812e-05
3.96681773947698e-05
3.970176039519218e-05
3.975563283510788e-05
3.971296440469619e-05
3.966762489524567e-05
3.96667938402193e-05
3.959516677821978e-05
3.957992378587207e-05
3.687936768772743e-05
3.68894071373451e-05
3.997316667652335e-05
4.003307330040343e-05
3.937501969571344e-05
3.948702662587939e-05
3.925696181440517e-05
3.924561206370141e-05
3.934280586206178e-05
3.934324039037215e-05
3.960356817338943e-05
3.958734977974093e-05
3.94789574925372e-05
4.042877717536237e-05
4.042636463943845e-05
4.042117183188485e-05
4.021534206787748e-05
0.003261917826035451
4.043473859022132e-05
3.925689152881944e-05
3.918547091085095e-05
4.062460680732787e-05
4.066732727205468e-05
4.071829951724561e-05
4.072723746742443e-05
4.067701792482032e-05
4.097905948795223e-05
4.107624659733745e-05
4.107583805379852e-05
3.946487737275266e-05
3.945497855352815e-05
4.136731415849171e-05
4.115658915396884e-05
3.898362310938098e-05
3.894268946021473e-05
3.922457679024626e-05
3.925099358659327e-05
3.92314520676555e-05
3.856666271776844e-05
3.851525456734201e-05
3.852758922076693e-05
0.0005984807215934811
3.966071142153318e-05
3.972985567294909e-05
3.962726005431748e-05
3.964765302444646e-05
3.972222419784846e-05
3.97008065719757e-05
0.003930311159571691
0.004272141019090635
0.003808889559883807
3.876352571860653e-05
3.880878573725379e-05
3.976299742813261e-05
3.982927675488476e-05
3.841930588096188e-05
3.844130737616058e-05
3.885073096018707e-05
3.880675999479292e-05
3.953801611335531e-05
3.946545351367108e-05
3.916187781848529e-05
3.87558300552456e-05
3.876962347274139e-05
3.873316078574149e-05
3.871765359298083e-05
3.911057736818277e-05
3.910113049483774e-05
3.907898486462167e-05
4.017095543897586e-05
4.013645031959527e-05
3.8801882158908e-05
3.994405127298263e-05
3.988426454625417e-05
3.922864562161549e-05
3.926007627378295e-05
3.824406130467e-05
3.885361320688544e-05
3.882449305125443e-05
3.885231885193505e-05
3.887882124492831e-05
3.952732558952029e-05
3.945146702303716e-05
3.935405831700134e-05
3.931430504655739e-05
3.933456156875745e-05
3.892565566437365e-05
3.889537380354843e-05
3.899391932417338e-05
3.899845499908968e-05
3.895184395533538e-05
3.896873273721302e-05
3.894921554211096e-05
3.932279718673287e-05
3.931758305248448e-05
4.073288968525372e-05
4.120693976151871e-05
4.06312966476306e-05
4.042300482097588e-05
4.075442563261255e-05
3.960777014304178e-05
3.954846622070344e-05
3.95834849336794e-05
4.622993207912868e-05
4.5933204994328e-05
3.794232071585428e-05
3.797477459364639e-05
0.01654433098234747
0.01586466416664471
4.155976090908684e-05
4.222789198223411e-05
3.818676892490094e-05
3.8066932264947e-05
3.79817141384057e-05
3.793765990191942e-05
3.78788811771219e-05
3.782124094477687e-05
3.80044173434716e-05
3.797166457556388e-05
3.804821637063932e-05
3.806223582530399e-05
3.807493609920479e-05
3.810207632907166e-05
3.811576795246068e-05
3.875449245987805e-05
3.87811530935863e-05
3.874269135936041e-05
3.877511178859265e-05
3.874510903569814e-05
3.830396359641688e-05
3.833061210367963e-05
3.850275240141501e-05
3.851426864628121e-05
3.832980459444838e-05
3.997633292110569e-05
3.99144483392393e-05
4.111138518037909e-05
0.001641780906032741
0.001054279964085222
0.001328883867225656
3.866764905195828e-05
3.868192355183277e-05
3.905766864669128e-05
3.908316467746432e-05
3.921147673972583e-05
3.915002566762375e-05
3.906798470937627e-05
3.886172018929719e-05
3.892577246425579e-05
3.880065494145992e-05
3.883497251994768e-05
0.01654752427070883
0.01590088155514281
0.01779413388239435
0.01883879557462361
3.806093365497549e-05
3.805437404075463e-05
3.945156311773792e-05
3.938933038532789e-05
3.956676215339373e-05
3.950334238374293e-05
4.911795763284397e-05
7.20314796898971e-05
4.460919085766806e-05
5.790979120633425e-05
5.368969254422406e-05
3.858300934508052e-05
3.856649893693946e-05
3.819141095669794e-05
3.814065915779092e-05
3.992370811808862e-05
3.978996768864509e-05
3.852920777692756e-05
3.856355175453682e-05
3.84425701377728e-05
3.839649499144721e-05
3.844762262822536e-05
3.746927412484104e-05
3.746741960855187e-05
3.810520346859809e-05
3.810372935695251e-05
0.01167544931784424
0.01070847794489391
4.63813171452677e-05
4.676533073575267e-05
0.02784392238453156
0.02570429381509524
4.479093131262073e-05
4.532761211549238e-05
4.285985123923436e-05
4.268411800160422e-05
3.969822431965058e-05
3.987372266634966e-05
3.802721045738505e-05
3.801791820232491e-05
3.786887359560569e-05
3.789449776258462e-05
3.809389335966455e-05
3.811855553308375e-05
3.805619133711535e-05
3.808824828332058e-05
3.822509498523433e-05
3.825300489479272e-05
3.810301937949938e-05
3.812267506113636e-05
3.745744284108451e-05
3.745502573002805e-05
3.920444824176264e-05
3.915455156924964e-05
3.846927102683928e-05
3.955798161283332e-05
3.9539467880843e-05
3.833544372918333e-05
3.8353910137346e-05
3.845328003338002e-05
3.843594828497098e-05
4.011126200880831e-05
4.011725502797642e-05
3.965812964295175e-05
3.965483638998011e-05
3.968858182942011e-05
3.962508763425313e-05
4.036181667156437e-05
4.031778068356238e-05
5.95817980966422e-05
4.682988960390331e-05
4.007723148718802e-05
4.008466206970005e-05
3.889734573983983e-05
3.882706948778923e-05
3.897019370910766e-05
3.89109510911633e-05
4.116248577894177e-05
4.106627425130804e-05
0.006336776744568053
0.006382223073904082
3.877293430588371e-05
3.876081504886298e-05
4.054327757103155e-05
4.046107953859673e-05
3.940238387817496e-05
3.946814010335133e-05
0.02107153634289548
0.01984870108490482
3.802639229160424e-05
3.80523082888296e-05
3.840416282529048e-05
3.822874568231458e-05
0.0001155633690276048
0.000127702688019176
4.102892746288002e-05
4.09689180526012e-05
3.917605266900793e-05
3.91300584921983e-05
3.910091588417156e-05
3.861286473599597e-05
3.850842735120221e-05
3.855714399628317e-05
3.872552117290731e-05
3.878368026106158e-05
3.872055709723429e-05
4.644665986725147e-05
4.821599080112106e-05
4.712179762639295e-05
0.01846310308835778
0.01648143594176582
0.01365766494060968
0.01320433648379224
0.01577447131494644
3.820334691588301e-05
3.82049137531351e-05
3.816176439938915e-05
3.909287605265458e-05
3.910534702766302e-05
3.909825841682784e-05
3.903740860563073e-05
3.905660040683056e-05
3.730689140426822e-05
3.730838242650885e-05
3.730978762705312e-05
3.730466013203096e-05
3.730462159889534e-05
0.01432300982915679
0.01385806538227907
0.01433332021033899
0.01648922345694772
0.01575746558434814
0.02863684835631435
0.03453207689835982
0.03926137283787508
0.03006649214872281
0.02840166204404948
6.181572603050953e-05
7.453708650036573e-05
6.674990170362443e-05
4.900458293744856e-05
5.003785304804509e-05
5.955632402641411e-05
5.879110630252532e-05
0.0267815302595017
0.01692376994740318
0.03236521820599462
6.652469163749672e-05
0.0001891300833134372
0.0004323100940448505
0.0002618072570361926
3.801609255853481e-05
3.802415669711463e-05
3.802938416523808e-05
3.800485025403498e-05
3.800527816351462e-05
3.806929472381322e-05
3.807495206018565e-05
3.808469126631494e-05
3.80697659689356e-05
3.805765778419195e-05
3.825735135703821e-05
3.825657416504921e-05
3.82488925693772e-05
3.821122982850915e-05
3.822690057125685e-05
3.835907442185389e-05
3.833831930251633e-05
3.832939462770265e-05
3.835864389484374e-05
3.836339526520299e-05
3.899881636715023e-05
3.900947437973023e-05
3.902629190054031e-05
3.906446602021664e-05
3.904387941195313e-05
3.891562360880789e-05
3.888489714328897e-05
3.879986010725828e-05
3.872869256157871e-05
3.874103492672865e-05
3.871136072932337e-05
3.866694711818864e-05
3.869504475728897e-05
3.839922360794758e-05
3.850150454579482e-05
3.852250625391994e-05
3.970210895390461e-05
3.971002176177282e-05
3.947199922089747e-05
3.940549576954973e-05
3.939535676444758e-05
3.963006399319623e-05
3.965411605573326e-05
3.96840493929186e-05
3.971901092530641e-05
3.968171409549904e-05
3.955055539184394e-05
3.953057176061489e-05
3.95196051514968e-05
3.918717430746776e-05
3.913290828077029e-05
3.889230320038311e-05
4.065970971469488e-05
4.073082062598359e-05
4.067503457651206e-05
4.073923451532603e-05
4.616002789940206e-05
4.130853765858596e-05
4.634513377934508e-05
4.10747019915548e-05
4.107323052002308e-05
4.096171758055484e-05
0.003081964708412478
0.003296914908447164
3.87656111424864e-05
3.878973719907662e-05
3.882363511646894e-05
3.88171045316073e-05
3.87825949910851e-05
3.878152039160004e-05
3.876136178329013e-05
3.871585491196128e-05
3.872220188406884e-05
3.941142687459595e-05
3.960349865619115e-05
3.961426606525481e-05
3.969523517594419e-05
0.003193321200231952
0.003266863532895484
0.003266460486637802
4.050827024520286e-05
4.044612131334876e-05
4.044784639443482e-05
0.0009481316779002556
0.000452328708798184
0.0004553204187956927
0.0001518915701514328
0.000207321381023103
0.000234888890375427
0.02010761510314036
0.01999781454921268
0.02107106024727343
3.847568572220135e-05
3.848474926482266e-05
3.853530814525087e-05
3.844570382086194e-05
0.004795281433138543
0.00623321230248321
0.005700516881027241
3.934717867736012e-05
3.933014297146629e-05
3.933720654872704e-05
3.875061265626005e-05
3.874505501288513e-05
3.868211449033529e-05
3.888093285253985e-05
3.892158421120402e-05
4.055326372711961e-05
4.057382613969398e-05
4.056182323400335e-05
3.898390368784316e-05
3.898352442544749e-05
3.896494862669056e-05
0.02753347722199385
0.02870996695222351
0.02795486379400391
3.743978612934081e-05
3.743429511767951e-05
3.873544124665259e-05
3.875366266951302e-05
3.861070404365354e-05
3.859557751502652e-05
4.021920974201247e-05
4.015710295039482e-05
3.747473118806004e-05
3.748697963820534e-05
3.748821799914612e-05
3.851993755562951e-05
3.852368369896142e-05
3.842445271983788e-05
3.843913322496059e-05
3.842629050705967e-05
3.838058178551389e-05
3.839299824028723e-05
0.02177544038622452
0.02087479641652328
0.02134462926707775
0.02275235718080378
0.01697310925296377
0.01633689118526425
0.01685412499855223
0.01990058253195026
0.01879293407930091
0.03521649956969614
0.03866782495450059
0.03967783703422779
0.02549020516003601
0.03143542055528068
0.03566693235063102
0.01477853462207718
0.01728314639953923
0.01047651221703714
0.02163232763667374
0.02480490799780005
0.02752811873782649
3.808317659089443e-05
3.807719836232939e-05
3.806064817779053e-05
3.804523273634365e-05
3.806379033647851e-05
3.743180789197215e-05
3.743325275611718e-05
3.743212647812714e-05
3.742736341734246e-05
3.743002922685632e-05
3.823332261773288e-05
3.82575910178074e-05
3.829425988253892e-05
3.926817989734902e-05
3.920947268371026e-05
3.914587878721858e-05
3.918298086982614e-05
3.921796386907426e-05
3.884563127975468e-05
3.886914495287193e-05
3.886248566573879e-05
3.881213747517718e-05
3.882042162988006e-05
4.03725410850007e-05
4.041430342300619e-05
4.045893302302918e-05
4.038450207710765e-05
4.042302346194111e-05
4.046738521964227e-05
4.03940689384456e-05
4.04297665485307e-05
4.047271823037413e-05
4.012933872359036e-05
4.011029434410938e-05
4.00786037190906e-05
4.008057648684858e-05
4.006827723385496e-05
4.00285295388176e-05
4.000154564390644e-05
4.003387194294622e-05
3.729975561438001e-05
3.729745160979905e-05
3.731029698394321e-05
3.730404379448667e-05
3.730310441653961e-05
3.731770025403079e-05
3.730786731325928e-05
3.730902527159572e-05
3.732246991843899e-05
3.732078650345094e-05
3.731179450904612e-05
4.004032786016534e-05
4.002653270288982e-05
4.001024836391807e-05
3.998394272587498e-05
3.997476360468031e-05
3.9950940392108e-05
3.992741816825869e-05
3.991428131553205e-05
3.988997707581766e-05
3.909562182582201e-05
3.904821490714409e-05
3.901436684836173e-05
3.91149909154725e-05
3.907625669216119e-05
3.905090108763002e-05
3.913130925876678e-05
3.910269442239174e-05
3.907289141846877e-05
3.962568832883521e-05
3.958916942528728e-05
3.954822928907286e-05
3.960340594796495e-05
3.962721185365259e-05
3.739252251467999e-05
3.739528606307778e-05
3.739912739609003e-05
3.739557795371411e-05
3.739359890021427e-05
0.01191302516323271
0.01553988234616656
0.01914339686948086
3.915728018482686e-05
3.913850868831924e-05
3.90868790049541e-05
3.912072899053336e-05
3.910469154969958e-05
3.90655418617665e-05
3.903949501144225e-05
3.907596044783573e-05
3.95297130467199e-05
3.952114045634731e-05
3.950188321683519e-05
3.945694735644027e-05
3.943747759459374e-05
3.941800548409028e-05
3.939716251897069e-05
3.938019476935394e-05
3.935177329517537e-05
3.742268169139757e-05
3.74259633563303e-05
3.914250068661973e-05
3.912496792482302e-05
3.910589813652943e-05
3.911029035865659e-05
3.913909793009182e-05
3.933393685561269e-05
3.931463066335154e-05
3.929313421480601e-05
3.924350186020745e-05
3.927702221146744e-05
0.006272605239678963
0.007911333725225187
0.00828308505270893
0.003731164864800765
0.004259126388537095
3.826079254480485e-05
3.828169883359429e-05
3.832328222308623e-05
3.834845094615433e-05
3.829796796678161e-05
4.040434243204789e-05
4.043686325566287e-05
4.047482972338194e-05
4.046359332308734e-05
4.042690599420158e-05
3.994619470311082e-05
3.987539529569972e-05
3.996516132681861e-05
3.98713615400102e-05
3.985544388593678e-05
3.982433246632856e-05
3.978408718261761e-05
3.982097279721134e-05
3.977431879188302e-05
3.975740613912649e-05
3.96713993987138e-05
3.731499202471019e-05
3.732243364497124e-05
3.731948718133576e-05
3.907451009645727e-05
3.906971320736784e-05
3.905253668394366e-05
0.007372027387766709
0.008402480026719348
0.01971939327631376
0.01962653325338332
3.821650849250278e-05
3.80058863001093e-05
3.797211436535527e-05
4.908657674932928e-05
4.585235642481518e-05
4.84854959377547e-05
3.875432034187863e-05
3.878231408609091e-05
3.876837659665673e-05
3.899438290623126e-05
3.90088911911416e-05
3.897175686409173e-05
3.876967387961329e-05
3.88060706345783e-05
3.876077159157824e-05
3.926653766132254e-05
3.928215446000236e-05
3.924058052420006e-05
3.863440797968295e-05
3.866349321278446e-05
3.866474641056834e-05
0.006224685810432543
0.006152045678454902
3.728403864874237e-05
3.729566976240079e-05
3.727497251088677e-05
0.001483087353358677
0.001122234379518801
4.0614617032515e-05
3.992161763971946e-05
3.995594415140459e-05
3.991247671769695e-05
3.879216941301502e-05
3.875127361363154e-05
3.88042110118387e-05
3.994459169916309e-05
4.001775211906141e-05
3.991079580104751e-05
3.917275654604224e-05
3.913093770608421e-05
3.918500638944434e-05
3.970872114549475e-05
3.972326140456152e-05
3.96830304216249e-05
3.873164425046287e-05
3.870619244576355e-05
3.874831054117776e-05
3.932029865387027e-05
3.915488751712285e-05
3.92694244332844e-05
3.862742241785683e-05
3.866894746638826e-05
3.865080120004608e-05
3.977348973981302e-05
3.974535641925109e-05
3.978396076637409e-05
3.964167654505494e-05
3.952975260675129e-05
3.968557256233454e-05
3.970648503803168e-05
3.965829828573907e-05
3.891554140538588e-05
3.88621643533912e-05
3.890970435341652e-05
3.8587187465159e-05
3.857339256034953e-05
3.854890767086403e-05
3.959220247259304e-05
3.958893592528579e-05
3.955959214882139e-05
3.872889695331915e-05
3.877400816067163e-05
3.87594897207007e-05
3.85819276906345e-05
3.856260232083701e-05
3.859887211320202e-05
3.843404157736416e-05
3.837238924219376e-05
3.826668814602555e-05
3.853927367562756e-05
3.851409558210054e-05
3.856782695887249e-05
3.860588716035743e-05
3.899103993510532e-05
3.895183542939028e-05
3.900252888600182e-05
4.17792915684792e-05
4.217765931899417e-05
3.929911909189552e-05
3.92664870254058e-05
3.92047457975598e-05
3.876167063606469e-05
3.886740302478639e-05
3.883984945987019e-05
3.914341955535188e-05
3.910344372206835e-05
3.743833239005315e-05
3.744774041891173e-05
3.744419936927013e-05
3.818715542825292e-05
3.817916626624849e-05
3.814786817124174e-05
3.747046014774214e-05
3.747255040516044e-05
3.746168412082944e-05
3.848060551860244e-05
3.845474713042837e-05
3.849499573865235e-05
3.851187191419435e-05
3.86000632315575e-05
3.857348867517051e-05
3.85808004940333e-05
3.861397909623194e-05
3.864388588248519e-05
3.861847320030244e-05
3.863654615639013e-05
3.841134166944654e-05
3.844174445326423e-05
3.843517753865703e-05
3.807509105978564e-05
3.810490883370283e-05
3.802441903346242e-05
3.862526023853494e-05
3.856771270805524e-05
3.862780995813658e-05
3.867010347200591e-05
3.81521711194197e-05
3.817760374917626e-05
3.817178699624771e-05
3.807545025235323e-05
3.804035459403205e-05
3.81002660382535e-05
3.809044272840429e-05
3.807255298705853e-05
3.808275984880098e-05
3.745918284422937e-05
3.745120669386175e-05
3.745606766571417e-05
3.743471297517854e-05
3.743705706139008e-05
3.74321310176591e-05
3.790749700396795e-05
3.787770623131817e-05
3.785473180396829e-05
3.904262415069133e-05
3.906262553609677e-05
3.90273136149842e-05
3.790563571380853e-05
3.792043804505152e-05
3.787191082419098e-05
3.784311572793641e-05
3.804791748735081e-05
3.804139515326108e-05
3.786098697947781e-05
3.78272856420002e-05
3.787948245375382e-05
3.790526590686246e-05
3.798264024459179e-05
3.796454805736217e-05
3.794698987633038e-05
3.769249472189892e-05
3.763212494543094e-05
3.76880546620415e-05
3.736797025585057e-05
3.73668875010972e-05
3.736512638623656e-05
0.03123142470663451
0.02271506747646859
0.02956075832990855
0.02598662149570733
0.01700412809778694
0.02629198126849498
4.927631074279996e-05
5.159372733082733e-05
5.179504642772819e-05
0.02001323024496591
0.05345503498004964
0.03338851248865093
4.337381787896866e-05
4.297673918784687e-05
4.304915738882925e-05
0.002489593490203444
0.002123584176147649
0.02376781076210579
0.02367511630045408
0.02711152020195137
0.0284664621987612
4.327853715039655e-05
4.38837054493825e-05
3.897984782237644e-05
3.894030907745715e-05
3.898541690345778e-05
0.0002515633026059953
0.0004378619849973946
0.0003375316978321275
0.02498852771278471
0.02283707389481018
0.0201525681929308
0.02114885895670763
3.894028110249469e-05
3.888116405469603e-05
3.891580694021593e-05
4.44169307027234e-05
4.531316996313209e-05
4.56369279345124e-05
4.480467170243446e-05
4.616341484832014e-05
4.563299845648337e-05
4.826996559253446e-05
5.236633450137654e-05
5.025773827195368e-05
0.0003591276719593252
0.0006554908418384323
0.0005517376248379484
0.01999487663589833
0.02418613787321386
0.01778918697788124
0.01797387905363198
4.501064270868492e-05
4.574701415048961e-05
4.56414928673515e-05
6.292457882055943e-05
8.511901598898198e-05
7.57419258339158e-05
5.284456655769176e-05
5.016429679295827e-05
5.408657697366472e-05
0.0191027787321067
0.02185919757572537
0.01804078195669772
0.003689144039749816
0.002256576989860936
0.00415639857590598
3.718290325442676e-05
3.719779539708356e-05
3.71680200551568e-05
3.744181499620694e-05
3.744314293046122e-05
3.742837729265265e-05
3.74816312487232e-05
3.748059792234837e-05
3.748874027473217e-05
3.748615103843744e-05
0.01821446871000258
0.01055627798852524
4.885506532968912e-05
5.204427293298619e-05
3.918942580859605e-05
3.926923404328871e-05
4.003015213521805e-05
4.023633066401964e-05
3.707308106969551e-05
3.708506709986111e-05
3.71157205723236e-05
3.978037682326569e-05
3.973695686518487e-05
3.976703076894154e-05
4.053592605112551e-05
4.053788112661779e-05
4.050223401664367e-05
3.863045409569237e-05
3.866368294178447e-05
3.86658460422123e-05
4.266937911049185e-05
4.206875220687301e-05
4.118274734830442e-05
3.87238432675483e-05
3.868933045424537e-05
3.874375383491217e-05
3.903313590020252e-05
3.907547158533334e-05
3.90074350909365e-05
3.829932574010503e-05
3.835294518193309e-05
4.854407931221578e-05
4.817626750397824e-05
3.809280949620331e-05
3.809797389339234e-05
3.992581370841808e-05
3.994506253535817e-05
3.994950356026364e-05
3.993203199242844e-05
3.878432395964305e-05
3.873528079785152e-05
3.875959701622611e-05
3.839797611462087e-05
3.838209398607508e-05
3.835810658882337e-05
3.911062529792697e-05
3.907496811101099e-05
3.912219896809858e-05
0.02596580027608142
0.03286381474813248
0.02544250494729552
3.862331536116076e-05
3.876352747128732e-05
4.481576965791884e-05
4.476207429373035e-05
4.044091571676288e-05
4.048893873293716e-05
4.04974131734908e-05
4.045039625169288e-05
4.038068414676753e-05
4.03885450234551e-05
4.239154067640993e-05
4.33270794127548e-05
4.401671636078468e-05
4.315882207173059e-05
3.94909864014796e-05
3.952222956718428e-05
3.947583083576206e-05
3.939475833386498e-05
3.862618632533391e-05
3.87065902237646e-05
3.77552188862215e-05
3.780947047664055e-05
0.01394794657550697
0.007426615277431419
3.939601939869892e-05
3.908767294866402e-05
3.916294830246117e-05
3.903522470632984e-05
3.916780048048395e-05
3.923463576203423e-05
3.950846809928886e-05
0.001780006392903484
0.0018989858653777
0.001747806704854487
3.977482337712579e-05
4.004699850248937e-05
3.723599896066369e-05
3.846910668847028e-05
3.85153779570954e-05
3.822684312825163e-05
3.817605142441311e-05
3.844291401462004e-05
3.852408628486192e-05
0.001834886798534236
0.0006766047400218717
0.0001379361310245849
3.920598922080287e-05
3.917826597266391e-05
3.926039335576078e-05
4.002485368210458e-05
3.993222785513937e-05
4.00111865255362e-05
4.482674241744795e-05
4.440618316762456e-05
4.387651295059544e-05
4.034166189680603e-05
4.033004038834361e-05
4.039945223248229e-05
4.006502166216375e-05
4.000849399672312e-05
4.006754719687117e-05
4.013492298471773e-05
4.013762735570048e-05
7.401869663992127e-05
5.503652820657008e-05
3.908397206899824e-05
3.909078824302136e-05
3.903046649573792e-05
3.870733398735771e-05
3.871094571447276e-05
3.865644082511905e-05
3.952078523799789e-05
3.956090306033952e-05
3.955583107425732e-05
4.043285760207191e-05
3.933998306517009e-05
3.828757504197647e-05
3.831878426863684e-05
3.831611439072775e-05
3.870063460904293e-05
3.872804973995393e-05
3.873967891328854e-05
3.871451724531682e-05
3.86685042290291e-05
3.870112434966712e-05
3.856621338039981e-05
3.808554802182535e-05
3.807955549986354e-05
3.788072567594215e-05
3.793061718427042e-05
3.786410870029541e-05
4.081102630080724e-05
3.969842079986599e-05
4.002475399020423e-05
0.01029129210669291
0.004001318063315935
0.003896432716549932
0.02052369243653592
0.01955058296173499
0.01653837711112938
0.01581129975092728
3.905765751565187e-05
3.923788930141169e-05
3.931712277761994e-05
3.931437358625659e-05
3.949079920351273e-05
3.95875027443206e-05
3.958187490561729e-05
3.966039689083444e-05
3.852148833602935e-05
3.85179707292927e-05
3.939543872309855e-05
3.942481408583366e-05
3.939781323046453e-05
3.943922103418058e-05
0.0001346619909571133
0.0003730264531972671
0.000389008496301611
0.0007526801785220712
0.002087961334940248
0.002669673456433479
0.002736634790235819
0.00325221313249354
3.944359842066873e-05
3.955592471634387e-05
3.934991491469227e-05
3.942259166079153e-05
4.051845702599433e-05
4.057693867533872e-05
4.059658479187896e-05
4.064426237936067e-05
3.935536096347754e-05
3.938271389780754e-05
3.979351672323017e-05
3.982639703306145e-05
3.910462181503864e-05
3.917355691528589e-05
3.914673042250545e-05
3.920225348116884e-05
4.020913557888939e-05
4.034813482959614e-05
4.034170198569806e-05
4.050124212911788e-05
3.857780561833849e-05
3.85721835723059e-05
3.826887420174204e-05
3.82791630779577e-05
3.823838203175553e-05
3.826756639633309e-05
3.731128312443928e-05
3.730114110921224e-05
3.724771958056848e-05
3.823818002369372e-05
3.824357724677674e-05
3.829777563075851e-05
3.829203528800419e-05
3.809066366186134e-05
3.857588816118341e-05