/*--------------------------------*- C++ -*----------------------------------*\
| =========                 |                                                 |
| \\      /  F ield         | OpenFOAM: The Open Source CFD Toolbox           |
|  \\    /   O peration     | Version:  v1812                                 |
|   \\  /    A nd           | Web:      www.OpenFOAM.com                      |
|    \\/     M anipulation  |                                                 |
\*---------------------------------------------------------------------------*/
FoamFile
{
    version     2.0;
    format      ascii;
    class       volScalarField;
    location    "1732";
    object      nut;
}
// * * * * * * * * * * * * * * * * * * * * * * * * * * * * * * * * * * * * * //

dimensions      [0 2 -1 0 0 0 0];


internalField   nonuniform List<scalar> 
44936
(
0.0004309260510919192
0.0004108875030441347
0.001771992155039102
0.001780019911139639
0.001766408569466243
0.001464960322609371
0.001463346061172665
0.001658609819874207
0.001637437131541847
0.001636894400532274
0.001658628639067254
0.000841948265817899
0.0008713051340926268
0.0008176870612692082
0.001105142666914886
0.001024272367088165
0.001097264940299498
0.0014045477880171
0.001297439098530824
0.002329164843960009
0.002314870927277499
0.002228553755372951
3.116048859099599e-05
2.823532740920064e-05
2.931692529962238e-05
2.72774649410254e-05
2.254354056855622e-05
2.802531297445432e-05
2.928119685522722e-05
3.287847972072603e-05
3.289415136710465e-05
2.357281005408069e-05
2.087335975300284e-05
2.66087212244684e-05
2.810509591367418e-05
2.736270504003169e-05
2.520464440706074e-05
0.0018726215391809
0.002005095387361818
0.001840294565904041
0.001705157980541104
0.001492570008506287
0.001564921271140422
0.001345402332430432
0.002075351005775205
0.002198071130102115
0.001973786674208363
4.307502944274372e-06
3.392005773445114e-06
3.414938218313903e-06
3.057646931883782e-05
3.022330717401792e-05
2.815706322875363e-05
1.025219242964705e-05
1.090056263496594e-05
9.250035647751182e-06
8.768437082071831e-06
1.044285988748983e-05
1.021470152613619e-05
0.002425427750683201
0.002411011999371038
0.002397320027245371
2.380289353523241e-06
2.118305707220882e-06
2.070316245082544e-06
1.966650657435374e-06
7.172168390485845e-06
6.434334158872135e-06
2.487533978151139e-05
3.684705584077835e-05
5.142766705432314e-06
4.402667683841822e-06
0.002460150603625547
0.002566946870457238
0.002518115951868269
0.002387853820220535
0.002414652166806891
0.002548798153699787
6.837689282705636e-06
4.998149698500883e-06
0.001681745259696592
0.002399153962946869
1.798131545999559e-05
1.954718427456793e-05
2.162297860487447e-05
2.176526373649078e-05
7.920672146137437e-05
5.622316483534785e-05
5.114210722757001e-05
0.002096309810747632
0.002096325340104601
0.0002832479955138888
0.0003007143618352824
0.0003394568909544864
0.0003097585256853514
0.002096284286555578
0.002096299909874812
0.0002518324178739123
0.0003252457873299988
0.0003015621081415987
0.0001910165607434619
0.0001773529251220255
0.0001973305438680035
0.0003267106225396769
0.000359783199214903
0.0004016864870069578
0.0001849963395760644
0.0002307015479785717
0.002096200563491479
0.002096196330517854
0.000203657595145483
0.0002205691138080481
0.0001149485864653366
9.928896760013119e-05
0.0001111836699549343
0.0003003224346253373
0.0003347945462920017
0.0002812492403906326
0.0002434685731933014
0.0002698798424588217
0.0001407688688043722
0.0001295937617427744
0.0002624818598938967
0.0001781708030986696
0.0001570624803741387
0.0001459514952218331
0.0001307756073867879
0.000153630775443865
0.0001746472362270118
0.0001231738909456272
0.0001084039379816642
0.0001217492869292788
0.001377356179116199
0.001699804358243047
0.0007166010691951157
0.0006894779964451359
0.0007758257255245508
0.0008285652383094031
0.001854957484283167
0.00186948930102645
0.001878747468138455
0.000173821949668791
0.0001750094794238238
0.0001800350160980978
0.0001895990473274106
0.0002455879889742756
0.0002585721085788006
0.0002450944938263933
0.0002493834520467297
0.0002193194553384445
0.0002343070116989028
0.002097283449761436
0.002097230948729985
0.002097413233273019
0.001850062195565346
0.001842141063081871
0.002096689220991378
0.002096764334611174
0.001753195521267925
0.001764173696651616
0.0001493152839751233
0.0001419157923481219
0.0002237818349955252
0.0002268412686862369
0.0002660051220909518
0.001981055421796621
0.001974551550598886
0.001770787519750754
0.001767832287258696
0.0001729172046074924
0.0001501082246134152
0.0001676724593994913
0.00184880125907527
0.001839186516242247
0.001868009268331326
0.001890904774304929
0.001887688120113133
0.001865661201046533
0.001870179861098869
0.001878844300795778
0.001715909664337469
0.001735531923021015
0.000243938157683985
0.0002426386636241744
0.000260567185290689
0.001788602016242489
0.001782001448211208
0.001814229628597408
0.001777164209101027
0.001798297511279054
0.001800764453935109
0.0001373372414854473
0.0001538040537597194
0.0001671164445090442
0.001198098466992744
0.001269582258727443
0.001943974341203648
0.001936608677207619
0.001890872166832143
0.001891275624512401
0.001789498192528747
0.001789999325042325
0.001825146297301507
0.001520546321815749
0.001460762251586073
0.001875172052185597
0.001889914017472311
0.001019510610378813
0.001092016877720892
0.001195185676206527
0.001620753568924796
0.00166529819549121
0.0005444430797883735
0.0005115480000282513
0.000529044889373992
0.001886109187047096
0.001899291019574303
0.001763783832561558
0.001767763346291442
0.001849053131077251
0.001869058006298848
0.001857205251089686
0.001840036811714571
0.001864924756228717
0.001884985564552362
0.001715560835596687
0.00174633074918654
0.001634222528253154
0.001674402742529272
0.002099147101767445
0.00209916131352164
0.001798297548485976
0.001769821720642116
0.002094839008846876
0.002088629806078417
0.001834317886417614
0.001842039306800629
0.001838767728554288
0.0003115445247699087
0.000320784900170536
0.001812407965813708
0.00182005674800875
0.00189777450794419
0.001912761213631585
0.0004349385401018899
0.0004186889346127698
0.0004578406853134283
0.0004482723934716011
0.0004339532172798286
0.0004412864171028229
0.001831470712997821
0.001832038327586053
0.0003639738413469599
0.0003932924499660863
0.0004026911256200285
0.0009877156010235327
0.0008795366549985211
0.0008457720580361608
0.001009706737968056
0.001050742347607349
0.001285116650993289
0.001254900697646492
0.001267068991936884
0.001815858591157546
0.001825886584072915
0.002099546639743891
0.002099526311774991
0.002098994645300287
0.002098578211953827
0.002098376818081166
0.002098849968649273
0.002103830826038423
0.002103460989749788
0.001203481419664418
0.001262351435065764
0.001101392489715644
0.001163504054798703
0.001185875049613745
0.001163820417535985
0.001202012101253444
0.001549996053869942
0.001462156027065518
0.001715530394955997
0.001720605590016401
0.002097972638164696
0.002097995976567913
0.0009526912997237556
0.0009407702614426023
0.001784697806108489
0.001747325078989205
0.001822589643662837
0.001827111494575458
0.001797160509927758
0.001796402925892155
0.001704950638417372
0.001712883466003742
0.00175288904696507
0.0005737255916658814
0.0005738218446498088
0.0005357379315997254
0.001435044807368863
0.002653518303415501
0.001305039632058881
0.001287361984398625
0.001368552291669166
0.001058821341496613
0.001055840459302212
0.001129463134267644
0.001121849763762758
0.001109111440560592
0.0009462151066154289
0.0009013584848789891
0.0009020298560788048
0.001687588880429128
0.001693735223455555
0.0008132499782086204
0.0008699268788260426
0.001824932371149758
0.001833601899367614
0.001740974541662058
0.001735790860845294
0.001740713159646592
0.001765654245844494
0.001783796020913387
0.001776607822393092
0.0005882613207030772
0.0015673090763921
0.001530404854380283
0.001587170854079452
0.001578327311364594
0.001540229272081694
0.001549296850469857
0.002109643923783601
0.002308301938911899
0.002064150556034184
0.00185373731214811
0.001844291003875445
0.001515316279346076
0.001482865682015766
0.001841893694453364
0.001831304783159868
0.001810142921723703
0.001820775557220653
0.001578618774177075
0.001614553778551385
0.001706751264030388
0.001709069832599745
0.001702126891798339
0.001716888832976423
0.001724548720829741
0.001705349459482145
0.001711920619207611
0.001722758322845433
0.001198679640651114
0.00123812271090065
0.001701157350039418
0.001359812249611907
0.001399689907516404
0.001646239575114555
0.001629768630936391
0.001943301769129475
0.001691323408327053
0.001703187339255601
0.001692989772628006
0.001684717134496525
0.001505987936997199
0.001541241764028988
0.00155036371784902
0.001567142084397435
0.001560748795909248
0.001706151744105928
0.001718123853554215
0.001679261691825272
0.001676319464946861
0.001697249657194123
0.001683655915494493
0.001693497714871706
0.001544661465339815
0.001548482925032842
0.000840030657489334
0.0007625887464792808
0.0008618410356789492
0.0009146334983632271
0.0008355741906373623
0.001638632565633066
0.001673120517990265
0.001653005946522397
2.140023075127173e-05
1.998573551709141e-05
0.0001762927438497263
0.0001607412915431395
0.001255794192487051
0.001179134041162398
2.268365879462663e-05
1.981005514790413e-05
0.0004098903552080186
0.0005099582117693898
0.0005357051268421554
0.0002682014009004807
0.0003112571454845945
0.0003396300791478556
0.0001950938770369771
0.0002055133935543597
0.0001125499004146091
0.0001295186194954741
0.0001303637245329788
0.0001118966260308802
0.0001036535225194962
0.000137220971499771
0.0001291190716059963
0.0001451693645765995
0.0001743182304746876
0.0001905125925265761
0.001763279683480044
0.001745895561646809
0.001924742118696647
0.001918681150568512
0.001968800197192033
0.001502888827017195
0.001536884152457967
0.0008863943841199862
0.001454633197610725
0.001058041501638116
0.001230665954726324
0.001724905856329894
0.00171783856853424
0.001689434555252119
0.001676515964553841
0.001759511532299173
0.001783257015732061
0.001813267812339947
0.001699689055544868
0.001659711399732443
0.001731652359782379
0.001712986795355685
0.001186633391254252
0.001087346536284368
0.001342671129120374
0.001474071292900461
0.0001335022769256268
0.0001487022295508955
0.0003551542452680164
0.0003809905561437859
0.0003392778389472891
0.0003586894231102692
3.356987546636257e-06
8.814689864129971e-06
2.74797782230257e-06
2.758635590636012e-06
2.881974402134989e-06
0.000191212696058809
0.0001933145216990347
0.001682842627283595
0.001724430790110427
0.0008795974048567808
0.0009905231451535969
0.0001929137278489053
0.0001981455149474747
0.0002304982222229641
0.0002787593406447923
0.0002437823642060323
0.002096297764872412
0.002096292427542589
0.0001647381756334904
0.000165175271559499
0.0001958144885391754
0.0001811766614971005
2.291158428834307e-05
2.24955350261577e-05
0.0009817957830105804
0.001522915775343822
2.582380565829867e-05
2.33121016495202e-05
1.787141998836511e-05
1.75109978795711e-05
1.458553266865563e-05
1.554948917501793e-05
0.001763884256398514
0.001773053206274009
0.000211609589256906
0.0002056361298165017
0.0001184689721568655
9.607967429234245e-05
0.001777309406159786
0.001753086835487237
0.000248233057581647
0.0002989211728170596
0.0001320257702282799
0.0001265586599554296
0.002096836898517506
0.002096859487143043
0.001650732232364521
0.001745947961247753
0.001660549739014575
0.000234048402499387
0.0002366487117384724
0.001826610455229423
0.00181976187933097
0.001792289606227324
0.001803849053481554
0.0003082377773799903
0.0003348771212474213
0.0008839774917539182
0.0009054696787621652
0.001095802974727511
0.001124267670970402
0.000428621232431962
0.0004351070736067618
0.0002490463052961986
0.0003004614692364779
0.001510017708821927
0.001506244753854825
0.001555986288838754
0.001608166931684978
0.001500630359891023
0.001549356612277604
0.0008691460757964405
0.0009033824279663392
0.002541731629533292
0.002532769525656186
0.001772667214155784
0.001774560743946745
0.0009032950783056545
0.0009327340202979135
0.001527039279015532
0.001495177432767078
0.001788564929634161
0.001499953728452323
0.001878611248737356
0.001863799315183343
0.001850447331525988
0.00190744751374498
1.873182263773731e-05
1.845582707722684e-05
0.0009195970691092057
0.0009485685099619031
0.001712332228405283
0.001558295698432606
0.001624319468212506
0.0002704583787613997
0.0002689884196020742
0.0002783879109187446
0.001776810733900935
0.001743558847973351
0.001777962283418801
2.192450744477494e-05
2.476020817893345e-05
2.4956651201377e-05
0.001037227705476214
0.0009599533189496107
0.0007995295930811311
0.0007917755328144022
0.0009525223102072747
0.001773552970045466
0.001774313804175283
0.001799979132421064
0.001767750928758517
0.001761988757276482
0.001765393426588972
0.001791570165416274
0.001783114428624185
0.002096737016366556
0.002096550878899421
0.002096390041356123
0.002096427712131916
0.00209661193644355
0.001057753506871498
0.000998019762017554
0.001046058462220532
0.001274498708724579
0.00120977998767013
0.0008247953775992901
0.0005533762314978658
0.0004223224527196846
0.0006281008759249624
0.0008051248811968064
1.936877130585671e-05
2.35660811606886e-05
1.828679816073553e-05
2.724754193801143e-05
2.572721045850458e-05
3.134596065916351e-05
2.894560247708077e-05
0.0008484373602101401
0.0007365418204612033
0.0009625164604096787
3.534441096596961e-05
3.058173915959251e-05
4.591294323628719e-05
4.478499494735e-05
0.0001539805401610344
0.0001364349026412145
0.0001284837528823157
0.0001459295843177079
0.0001400756858399581
0.0001272082627782839
0.0001181707936428968
0.0001233052127169267
0.0001383491305107876
0.0001341388351706775
0.0001814827230389735
0.0002013458228337693
0.0001807789759674173
0.0001971526348262681
0.0001887916436357468
0.0001225004393530046
0.000125317135588199
0.0001231110989935492
0.0001172744277297107
0.0001251499197785977
0.0001888291431566354
0.0001963651967264458
0.0001647518472339694
0.0001653749598685833
0.0001607467832277962
0.001794746125732692
0.00181012028197764
0.001843145026807766
0.001854571798034768
0.001850638160570276
0.001864036032352058
0.001880036633144456
0.001867918322767265
0.001932670170927784
0.001901747896180443
0.001898475114475185
0.0003074607271804812
0.0003033043781455906
0.001470513503462941
0.001514685994096882
0.001518443402230055
0.001347863106418614
0.001320484135782167
0.001284434903497453
0.001249454487739816
0.001294519568440925
0.001644243742481742
0.001651680068932403
0.001742399751271128
0.001840844909100568
0.001853174852305009
0.001918375701074559
0.001169386718308783
0.001110118666020368
0.001159666599254868
0.001099892658480426
0.000542935196792649
0.0007522606303028861
0.0005383057325412669
0.0008857176155869633
0.0008875232081269618
0.0009320945590216258
0.001610975394715662
0.001714221997178193
0.001701036831807272
0.001691576788299869
0.001677576538561092
0.001679071516717952
0.001693573710437467
0.001711517912144328
0.001717731169057906
0.001739059313838408
0.001739039984794242
0.001585970914857648
0.001440816655308405
0.001436798480821564
0.001391263222898205
0.002668838615502044
0.002658853662394261
0.00265515340501511
0.001262378754910253
0.001296857623365353
0.001296977184184223
0.0007181350772166366
0.0004946367015274203
0.0004963406106259407
2.899595124715976e-05
2.932080545722952e-05
2.945715308644298e-05
0.001520049266778424
0.00144731660671308
0.001749365597227166
0.001660844402455185
0.001650929959277397
0.001845573384039028
0.001883963464124731
0.001826448421125489
0.002375573082191878
0.00213733315857787
0.001620177536196442
0.001625034326567767
0.001623288799044632
0.001785085833143689
0.001790426781858501
0.001813666606141468
0.001682762488876218
0.001664838109631754
0.0008992736964510674
0.0008951117304387363
0.0008978579068387191
0.001679187789332335
0.001680712968382155
0.001689923181730724
0.002180079168134616
0.00235306265766907
0.002352760079125471
0.002097487496135736
0.002097686773186356
0.001374774630586858
0.001366502951118134
0.001441417928509847
0.001449458060479901
0.001433319833038557
0.001468129837052618
0.00209688009670414
0.002096728478476396
0.002096745186145296
0.001502576459553315
0.001501975503477392
0.001695934410253735
0.001686333609594709
0.001698350273997954
0.001731481866899056
0.001720651684444236
0.001883456905550848
0.001648291034583552
0.001751036625795506
0.002089314391681548
0.001277957256316886
0.001248954675259346
0.001301821072975323
0.001471219038391815
0.001400349114684254
0.0003788018165250059
0.0003704796700046079
0.0004430667190417554
0.0004028221996130951
0.0003647941029819945
0.0004463564644949278
0.0003570560656543177
0.000401257013489857
0.0003057270720236516
0.001472129127750112
0.001402931763850785
0.0009255361342042964
0.0001374247558698227
0.0001504214511292236
0.0001527386800521236
0.0001641065573318726
0.0001534560757906567
0.002097890188419329
0.002097734610216084
0.00209770457705853
0.002097899063717888
0.002097953802579467
0.001734497675482873
0.001714065635798034
0.001682163527874187
0.0001847084186957003
0.0002044746435710959
0.0002358206718256782
0.0002527976667655089
0.0001841320200758584
0.001806770432053443
0.001797462247851386
0.001801240184241385
0.001822093845387821
0.001817855380927865
0.0004463410115600305
0.0004365059144912847
0.0004137300474392622
0.0004680392089649348
0.0004531023410985917
0.0004210601880703081
0.0004989218208858928
0.0004636832405916327
0.0004311822540008004
0.001462922958091007
0.001472499500860147
0.001489020125873324
0.001490706190252098
0.001496764835691055
0.001517862652114301
0.00153352402778324
0.001516377769075195
0.002105642979876414
0.002105450060885983
0.002105515409521022
0.002105488852189872
0.002105345727390641
0.002105358399670308
0.002105292063617577
0.002105226009708732
0.002105180669626202
0.002104901537869199
0.002105076162320654
0.001490368181724085
0.001496531823422796
0.001503763873969345
0.001521844928907194
0.001525532526514687
0.00153678398824784
0.001552930303911012
0.001558874324471015
0.001570369741861691
0.001630258280725765
0.001652328076740981
0.00166835526109621
0.001622648416021542
0.001640759520243209
0.001653156566225155
0.001616376164591156
0.001629622329394854
0.001644111781978298
0.000377832043540822
0.0003832983915493954
0.0003563511988945732
0.0003488578746885888
0.0003537290837667101
0.001931532060099967
0.001654263550619184
0.001514620578119741
0.001720090940391008
0.001926299631262629
0.0002318117939391908
0.0002670515775864115
0.0002969838226596447
0.001706891509832977
0.001714103240641073
0.001735663788137239
0.001724700136803024
0.001731006545178559
0.001746645802936224
0.001759883846935396
0.00174596507991242
0.001503651259959296
0.001506438203038132
0.001514023078932285
0.001537464977536067
0.001545154196129159
0.001552849562584275
0.001565024578155922
0.001571745474087523
0.001583600942041464
0.002098341325922221
0.002098154329652412
0.001612558991389597
0.001620547387406121
0.001630365179959206
0.00162974313231044
0.001615326810896023
0.001594607111411946
0.001602704750810094
0.001611518132052555
0.001635371117799849
0.001620797978452318
0.0001683065072058549
0.0001967151031715473
0.0002100180002525525
0.0001405772837480032
0.0001463861053721986
0.001715123559913263
0.001697305463901385
0.00166088552642755
0.001642492913331143
0.001686143514419131
0.0004752817583777964
0.000412236814719055
0.0004561513607767764
0.0004560949833948054
0.0004418425764617022
0.00156648504004614
0.001604095973009132
0.001554856147478623
0.001583232527723642
0.001590726583578687
0.00160542935177016
0.001626118392499187
0.001608769323132824
0.0003012021263787919
0.0002999096323433221
0.0003188659185921057
0.00210504731613469
0.002105314272847077
0.002104902212160976
0.001750656773966102
0.001750721891575294
0.001762811208078125
0.0002699570058958733
0.0002811990754493606
0.0004499328704383677
0.0004660361116907458
0.001957509042766677
0.002009276487874568
0.002013719211627888
2.141316024748396e-05
1.952506893171806e-05
0.000445006568968581
0.001799743023943065
0.001789706383369124
0.001798253171020193
0.001735899659061816
0.001731155518535202
0.001746666441293725
0.001806500685044282
0.001793921035336723
0.001812509533160591
0.001666308647317055
0.001659899588338933
0.001679493298536794
0.001762499770747774
0.001749542747417463
0.001751509730421533
0.002602889831617617
0.002607225976447117
0.002108471091213352
0.002108532580063329
0.002108156978180796
0.00132836847504731
0.001084849585791553
0.001017452575926607
0.001545473756353199
0.001526960554177861
0.001552123318740273
0.001682279725248156
0.001708863094995831
0.001676325344821249
0.0008863206105242067
0.0008584848539405991
0.0009059164272261187
0.001503492130372328
0.001536156921890852
0.001496524048531135
0.001534896140798908
0.001575190124387875
0.001657717438064216
0.00167552086489402
0.001693306640148528
0.001665985577356279
0.001807086854821983
0.001856620904278731
0.001822146196303344
0.001771350881761232
0.001748572901022841
0.001757297447287622
0.001168435357719507
0.001203489583477602
0.001160076560178804
0.001187171574408779
0.001149956401506698
0.0008761044604652668
0.00105190501710623
0.0008803685918731561
0.001337019726837255
0.001379819888131429
0.001343086118376738
0.001743267406629802
0.001749977526189819
0.001765474997909771
0.001358551093033946
0.001358780081452288
0.001384390180250468
0.001786211344525476
0.001763689264551124
0.001769798100977316
0.001865244283052528
0.001873237950750703
0.001860153492393966
0.001902599782783848
0.00191801176911594
0.001948808134950241
0.001609675568307102
0.001634598550716022
0.001591024091311037
0.001553409603190636
0.001787362496050928
0.001804079930793843
0.001782948551705601
0.0009421392428000463
0.0009130302613938597
0.000168578466586874
0.0001671951659123925
0.000190140462380565
0.0004171585602540162
0.0003813869610059385
0.0003586957341678291
0.0002164148904690491
0.0002655453934126538
0.002098550958987329
0.002098235305473268
0.002098455758990067
0.001793099664549029
0.001795454889435888
0.001814143334967967
0.002097426067567569
0.002097528255248553
0.002097570461642662
9.62321891950463e-05
0.0001055497227057746
9.719527282855011e-05
0.0001029415450011149
0.0001603694247304296
0.0001826391037762897
0.0001363369595837261
0.0001279268806524541
0.000141644501999405
0.0001670220815617793
0.0001279444912891959
0.0001914054853335199
0.0001832627488325372
0.0001786035874306096
0.0002914647040177852
0.0002680337549577797
0.0002872245874058748
0.0002599920207024816
0.0002553466115366188
0.0002556301590581328
0.0002643162670012522
0.0002047906781711101
0.0001850469563368084
0.0002127172171194417
0.001759232343621887
0.001785739257739386
0.0001149193368536892
0.0001135493452089527
0.0001232114751661287
0.0001268910010463383
0.002096224580246746
0.002096207982929393
0.002096211767829526
0.001793594578475134
0.001628514003372007
0.001779088639373093
0.001855989459345327
0.001866147810262344
0.001878131503427352
4.881000285515093e-05
4.265221371700132e-05
4.711607914888422e-05
0.0002813795424533589
0.00031250321071592
0.0003176015749013422
0.0003554537877777022
0.001750262781122314
0.001757576535417934
0.0002410423430115846
0.0002249389265186197
0.000181853321821219
0.000203390600937295
0.001793830572257331
0.001802481039588106
0.001814282586568921
0.0003951501776742804
0.0004416865087802701
0.000421557125989966
0.002096498967205205
0.002096643684982975
0.002096653015637728
0.001887931213130773
0.00148401764177992
0.001870912735978951
0.001030816663473893
0.000839202552904703
0.0009053813473559216
1.80666619401725e-05
1.80906307643383e-05
1.727697337445731e-05
0.0004623779804985165
0.0009527384044429983
0.0008177829339431576
2.03657698568786e-05
1.964241853171329e-05
1.820882154308041e-05
0.0001111460004925536
0.0001064456944107001
0.002260701187032607
0.002250346763424669
0.002449504680998426
0.002471613785385904
1.781521399743313e-05
1.769902566621816e-05
1.975871143365865e-06
2.966866240343273e-06
2.124530433411642e-06
2.158961224799353e-05
2.51017189236914e-05
2.228624015708361e-05
0.001207174016482452
0.001396218117978222
0.001336145207299644
0.001343001757909363
2.097529373866224e-06
2.786339410597772e-06
2.113975727476983e-06
8.496709003218109e-06
7.438665646721048e-06
7.377609081697196e-06
8.781088254869222e-06
2.318972248074725e-05
2.737706790703227e-05
2.550872907277726e-05
2.884937010260909e-05
2.689471559097354e-05
1.791099478344312e-05
2.061482082948062e-05
1.883692825651306e-05
0.0002231584809351306
0.0002429032203593781
0.001249451291666216
0.001277774692924159
5.619460013281392e-06
5.392793665325039e-06
5.926831841159868e-06
2.732647383595072e-05
2.175805361652e-05
2.34012676749822e-05
2.67385128049739e-05
2.832855519109355e-05
2.533266874793857e-05
0.0008875021758666888
0.0008969592337003918
0.000886383252525702
5.231781317406273e-05
4.39666282548223e-05
5.872030568365515e-05
0.002098570125496202
0.002098652471245027
0.002098292766728541
0.002096056756491301
0.002096055939526011
0.002095994359066232
0.002096309824300982
0.002096318361058578
0.002097458072260154
0.00209736405573637
0.000371182119742957
0.0002859501147837236
2.729358378360847e-05
2.785186797761553e-05
0.001134081398559108
0.001116767434767483
2.023399775809852e-05
2.197057526689089e-05
0.002111176064635696
0.002111683710849735
0.00211232249432076
0.0007115290389567371
0.0007019021635987574
0.0006543472344926617
0.001224194873231954
0.001225441589302258
0.001246026208014567
0.001782261261888732
0.00176540631265426
0.001761491529963274
5.732538306458908e-06
5.764265096357339e-06
5.549244172309911e-06
0.001806955375159651
0.001823257405632339
0.001798955144767523
0.0005912222703311945
0.0006380616952522984
0.0005867332160643337
0.001686854706862698
0.001641338889687991
2.508225383119227e-05
2.514553231435947e-05
0.0001280070660912094
0.0001148612452306262
0.001240903342909143
0.001216415777625365
0.001214433397701416
0.001237101333493045
0.0001750084751401169
0.0001972753527599193
0.0001729141437346062
0.001745689222267424
0.001754388000242577
0.001770568728598088
0.0009622540156638376
0.001067022910681316
0.001049665623670479
0.0004305081294087569
0.0003356709087174487
0.0003996105257104977
0.001434944814018062
0.001362401129849438
2.081138244867359e-05
1.893561237551414e-05
0.001267560536300931
0.001236186707262264
0.001233520005735955
0.001264156817821374
0.001303579913783906
0.001301069942542834
7.974127912211598e-06
8.171664657431852e-06
7.628265379163566e-06
8.156794951460066e-06
0.001691613708641046
0.001675028666809808
0.0003768191226675039
0.000404498223306368
0.001925110800933521
0.001900498204020248
0.0003057824759331449
0.000247397291172495
0.0001797039007870951
0.0001373222195131748
0.001535122681069897
0.001652913585248808
0.001618297056713512
0.001676310510337215
0.001639784852649222
0.00160940709816877
0.001693989048572214
0.001313566375191362
0.001364597316794383
0.001301745703874077
0.00100294527466255
0.0008322320186550796
0.002097917809815022
0.001970453122401982
0.001958090636172832
0.001653114694950147
0.001692244588807073
0.0002453680436990064
0.0001981708961343013
9.262641040726623e-05
7.62407196470245e-05
1.83657167837316e-05
0.001767986392648687
0.001781741061590368
0.001749253951952789
0.0009666890289659072
0.000888489404488237
0.00115845338247229
1.831242567571101e-05
1.626179950303056e-05
1.779230364155519e-05
0.001332880777005309
0.001337771296152097
0.001296747452471232
0.001493670886652676
0.001523133668980209
0.001490517471932189
0.001453277580800224
0.001453159060332108
1.440593745665564e-05
7.296350961492875e-06
0.001681246160952481
0.00167655583183676
0.001703677957409234
0.001710126193712928
0.001710008434895141
0.00173100425630756
0.001671544471586417
0.001649773508775486
0.001657177236824575
0.001270079119570016
0.0004138113337393668
0.001770245535318637
0.001746208617767422
0.001750222936619053
0.0001608868716128799
0.0001674039415431714
0.0001337450578787827
0.0001399438808240407
0.001916413992998839
0.001904728203247968
0.001943160043618297
0.0001119706128316646
0.0001136368867193652
0.0002241900183266038
0.0001917820853520584
0.000221060153754075
2.38448651947735e-05
2.348700913825878e-05
2.161277483059876e-05
0.0002337405067840022
0.0001560931193007452
0.0001113234636166584
0.001600909366655171
0.001541957447912189
0.001258718684953519
0.001185277184019127
0.001664535173358481
0.001606588337028803
0.001570864988456851
0.001573632232946736
0.001537305180134497
0.001491948898581894
0.001496494199814272
0.001456742206438155
0.001807821411006565
0.001812369769727402
0.001680918225436791
0.00166771314086616
0.001683169650119629
0.001663380088772064
0.0003722800485345187
0.0004867442942513182
0.0004893294962268466
0.0006709944285439479
0.00144607328591068
0.001737646502570654
0.001763556672429242
0.002029970142079099
0.001109499322995941
0.001033699844220415
0.001193153247619473
0.001124242731298986
0.001258233863059808
0.001223646614535887
0.001213556893197737
0.001178822563802467
0.001113104402933179
0.001102214894355494
0.0009932128586606713
0.0009842850163611957
0.00161424009446003
0.001568951396513026
0.001583153142906597
0.001543329711369011
0.0009124953851769047
0.0008128335875877131
0.0008122107810691952
0.0007183937229704044
0.001903642074511599
0.001903602504934495
0.001814494726023749
0.001811860268870916
0.001834811747955674
0.00182278002419001
0.0020986304577318
0.002098690743467141
0.002097911181571959
0.001740573327767322
0.00173350639099572
0.001693105253161375
0.001701188035198369
0.001842384012334839
0.0002200594563499745
0.0001904549460930851
0.0001915935036790686
0.000167526107441301
0.0001492077996324904
0.0001333318789043423
0.002096265430048153
0.002096253841526616
0.002096196667049542
0.002096223608761323
9.433169014285526e-06
1.028893887931957e-05
1.135988114746352e-05
1.175361283288784e-05
2.454067579683665e-05
1.960427535054744e-05
1.742642429934776e-05
1.594204720848114e-05
1.905792245855308e-05
1.945572545604572e-05
0.001967390633906987
2.621504251138683e-05
2.622710634858072e-05