/*--------------------------------*- C++ -*----------------------------------*\
| =========                 |                                                 |
| \\      /  F ield         | OpenFOAM: The Open Source CFD Toolbox           |
|  \\    /   O peration     | Version:  v1812                                 |
|   \\  /    A nd           | Web:      www.OpenFOAM.com                      |
|    \\/     M anipulation  |                                                 |
\*---------------------------------------------------------------------------*/
FoamFile
{
    version     2.0;
    format      ascii;
    class       volScalarField;
    location    "1732";
    object      omega;
}
// * * * * * * * * * * * * * * * * * * * * * * * * * * * * * * * * * * * * * //

dimensions      [0 0 -1 0 0 0 0];


internalField   nonuniform List<scalar> 
44936
(
0.1144476401521737
0.123427322324828
0.02186575497536015
0.02175998310846207
0.02194459218178603
0.02703579744739307
0.02706961627126813
0.02350349305837447
0.02383611605847565
0.02384307919087336
0.02350143728920617
0.04840126679910541
0.04662887836941079
0.04997413469542121
13.91526580988354
14.48682964496999
14.10881131392638
12.84252763781596
13.13069324331578
10.95499845573811
10.84912773230896
11.56589440915115
1.91763608844367
2.378583760772285
2.409846261291892
2.853399587052839
1.380031923098279
3.096566960998377
4.152918879039127
1.821339202908325
1.819596473857148
2.367051306819856
1.632220173441799
2.732444316363202
2.815150780092196
2.153635143775069
2.153560940842804
11.4168894232493
14.36386072173743
13.21990615922359
12.79029773884201
12.57934737499484
12.53432515714861
12.87555250214832
11.01888446560514
10.78336155951682
11.21866031099524
0.09430927412932526
0.2532402363904582
0.09169727509112155
1.222305546995022
1.002215889141297
0.7910723802342581
0.6391913198800746
0.5897540342667388
0.5542822460640897
0.4388027916021264
0.3226986977315229
0.4250879315920968
11.19573896645269
10.91052774655684
10.74265444759414
0.1427409889984844
0.1969604258599956
0.287251566900875
0.24928948936455
0.2064454365874318
0.2943589107194748
9.443229639514614
21.07877405722536
0.2185273011617721
0.2074795934329847
11.67858966346848
11.88122129465145
10.61568632283493
10.3754079712837
10.39910717673999
10.7614050820988
0.03738724859930325
0.04262213590535625
13.30184805475879
12.91458568226238
0.3612667686273728
0.2413794817371758
0.1688388408293862
0.1516087070217066
0.5013902297764761
0.4976101825685059
0.5878572139939213
0.01787734479058605
0.01787646166979087
0.01832340168546939
0.01824661235394005
0.01815951506321677
0.0182352187486518
0.01787251456370683
0.01787068487393125
0.0185328749977529
0.01826484430347531
0.01836142513485963
0.01872838989797573
0.01878431652237741
0.0187286834314222
0.01863806897810838
0.01844197802964818
0.01832669813018706
0.01872019588908277
0.01861380385096937
0.01787148939847441
0.01787099937359186
0.01925322468101281
0.01916259212084766
0.01947000077887768
0.01964478637510247
0.01953994536481572
0.01936989247859926
0.01947335527389359
0.01941791940281668
0.019604120508909
0.01949645397565253
0.0194484346252083
0.01954629783088734
0.0197360518347213
0.01945058960941255
0.01956219536205725
0.01979489132197269
0.01981001407427904
0.01968780911915257
0.01955277634601721
0.01944462863444662
0.01960586361787592
0.01949953662669445
0.01929791828274392
0.01875531745358771
0.01998088651011685
0.01984662672428529
0.01951094717398513
0.01967302577213685
0.02047176320792138
0.02029811996557422
0.02019140391011024
0.02015149173738367
0.02009031319448656
0.02025825220867855
0.02030436933431884
0.02149106908278672
0.02190036813059736
0.02180104601848505
0.02133575218318141
0.01955627382067979
0.01941233935777487
0.01779137859920544
0.01779685562760321
0.01785168704773878
0.02057456022587355
0.02066781003928524
0.01787316095268716
0.01786856898594828
0.0217607854449193
0.02161885137245079
0.02107201474086276
0.02128970769950356
0.01996396354062047
0.01973337666805788
0.01955091663824026
0.01936913473830093
0.01945519122771379
0.02207697680798001
0.0221223807274942
0.02055038594791202
0.02096231565923764
0.02060554460244782
0.02063108681285671
0.0207458231809041
0.02039800692418389
0.02011953338357278
0.02015120049155863
0.02042135011143698
0.0203860454180895
0.02028560467206245
0.02285682331738403
0.02257597531734238
0.02127810907706466
0.02098411912840031
0.02055790662881772
0.02137313900760859
0.02146101144705092
0.02104879585699159
0.02152922336119556
0.02125683791803462
0.02122241517119233
0.02173586795966878
0.02138504657081067
0.02120570566274896
0.02453817153825555
0.02394294919803103
0.01979002326144661
0.01988591296947979
0.02046412239002379
0.02046045940740718
0.02139932724916281
0.02138991124784706
0.02094507772160207
0.02531291925096598
0.0264078376025914
0.02037357158811315
0.02020088023259007
0.04004582108391737
0.03679718461229906
0.03305705668468611
0.02370320255142491
0.02303906144544914
0.01988610086346438
0.01976535100713695
0.01980381746841975
0.02028888302722389
0.02013509899586601
0.02177112206978306
0.02172013042772784
0.02091784280185443
0.02066430530795794
0.02081003919631587
0.02103044070925244
0.02070651390699466
0.02045397829314318
0.02242346469655742
0.02200328566486614
0.02398840731112145
0.02337173745578105
0.01770369674691676
0.01769922924991624
0.02157407701723002
0.02195451095823379
0.01780446775157871
0.0178939266609438
0.02109491122964921
0.02100054188769499
0.02103995334635233
0.02724172348553945
0.02708837352137925
0.02122089177568089
0.02112023180480009
0.02019461820042247
0.02001957553566215
0.02486865824781558
0.02555469255099888
0.02435104988055991
0.02448414844657745
0.02518790895321878
0.02501993601768812
0.02107738132581954
0.02106748552966774
0.02691123136412314
0.02680556414093241
0.02597408751552166
0.02161871086129051
0.02268840761875261
0.02286263158106808
0.02209299824724602
0.02181918158230542
0.03033681179280991
0.03110343749036313
0.03079244472748865
0.02126028157392259
0.02112841103298667
0.01755902332160144
0.0175558622676355
0.01756138891898398
0.01756185065086568
0.01755774230752035
0.017557056842352
0.01775522459008006
0.01775803557831853
0.02370097481436004
0.02318465279765313
0.02314456391094957
0.02341401922776228
0.02359913127608043
0.02389319552636104
0.02365358009416631
0.0234147481362335
0.02340652050965759
0.02308042276291781
0.02300348436360408
0.01757857419913229
0.01758316390944278
0.041958152329211
0.04255350635660574
0.02206256967479003
0.02259855770439804
0.02153911164309642
0.02147959343489347
0.02189164832229887
0.02190112241708411
0.02322857171404775
0.02311152542799689
0.02252222270479159
0.03158237237022073
0.03163000344418472
0.03162796918611353
0.02802375358690843
1.229280318826836
0.03098353306437899
0.03049405839582704
0.02863279039418951
0.03390449252969093
0.03480535324472209
0.03605102130548759
0.03630364669403022
0.03502476199279951
0.04330839700343887
0.04557148713461337
0.0455371158470945
0.0233853622943506
0.02329465550880626
0.05086666494552292
0.0473104006275898
0.02136168097276954
0.02123835575958204
0.02253024145476573
0.02261274354646553
0.02253757424090506
0.02184270380712188
0.02159173701240817
0.02168604051786186
1.017372212876736
0.02530497144368677
0.02596035654175781
0.02496723018348331
0.02512004496086924
0.02578981254145493
0.02562504826620902
1.863021107620267
1.850772183254528
1.845257628494774
0.02091101336989725
0.02104265848269287
0.02624072477152561
0.02685966587394615
0.02085859026319319
0.02099121223821145
0.02146279749180886
0.02131331335204764
0.02504595584451112
0.02444356703254592
0.02294527541523943
0.02267656319010226
0.02277716406429625
0.02256008661818431
0.02245088997796039
0.02293405445477392
0.02284050443468361
0.02268396230997508
0.03351267017195294
0.03241718285774658
0.02280910825680465
0.02937468116233158
0.02849507189562039
0.02382924467047011
0.02408935570886887
0.019679939529825
0.02297231447019166
0.02279519824767083
0.02294893890092738
0.0230773584768859
0.02624677437213351
0.02559719567935037
0.02538375857479515
0.02508662452369385
0.02520236547473499
0.02281488490038839
0.02263828287063653
0.02322087112092039
0.02326433344871165
0.02294997897936252
0.02314530681630863
0.02299927257065218
0.02545722675750322
0.02539103429354933
0.04848976560807355
0.05403559907192819
0.04714476912279037
0.04419584991509107
0.04877415565160736
0.02417123336477802
0.0236375478009251
0.02394636572055614
1.159427068017243
1.095217627115684
0.01883829099583425
0.01896148588751032
13.17439679314177
13.45450441834858
0.2601995980315577
0.3425825144333025
0.01903817882168405
0.0187568473761021
0.01857857101209449
0.01865066013593062
0.01847675680261061
0.01833214470923319
0.01891437640310605
0.01881224212580193
0.01933744114846116
0.01939107848767971
0.0194402901119406
0.01961277850057846
0.01969387445398314
0.02179027523851447
0.0220685897416182
0.02145229275526988
0.02140054488400777
0.02127018797695793
0.02172313556112631
0.02195469932206279
0.0200041096557327
0.02007330328693191
0.01946861070468989
0.02659966073501744
0.02597101953026413
0.04638046666010247
1.128656288560863
0.9964448109577271
1.079808750800435
0.02241725188076756
0.02251778732901454
0.02311878168069233
0.02331213391568581
0.02228543321252789
0.02195422495032323
0.0215456230147055
0.0228640174286698
0.02345333801438665
0.0224067231059796
0.0226709117812458
13.94493395573368
14.623563900317
13.25278655097905
12.78011156268799
0.01937642908477393
0.01933090102794063
0.02330141021001795
0.02285848499756601
0.02405789004800265
0.02357390353999177
2.492386210953346
5.369614850177419
1.589837250922082
4.51462611366118
3.558137907277565
0.02082407239194238
0.02068037317510881
0.02269458256969971
0.02211782541608905
0.04538861517513134
0.04017065919491967
0.02043615031613811
0.02057575201813831
0.02004522230352258
0.01981952891630054
0.02002590060054447
0.01787402283812555
0.0178731836819511
0.01931501049166815
0.01928254418932032
59.625053309109
59.10517312995797
1.127978518950811
1.214344301446243
17.78743664105126
16.71795012032202
0.7234259433065057
0.8307014181884127
0.478206300505337
0.4385110709156939
0.09166277157821286
0.1055729795864209
0.02155879010736721
0.02144206280319012
0.01862876951877008
0.01870057811249795
0.01958571883105915
0.01974210880095253
0.02141224887755642
0.02172638999524212
0.01934648386890226
0.01943427848810773
0.0194751774815969
0.01958487210108868
0.01786378466897805
0.01786243950044563
0.02277975049848582
0.02242595566323042
0.0231665876203553
0.02486413134941668
0.02461958564648051
0.02098720261861656
0.02107633453199201
0.02145483626071022
0.02130774091700573
0.02886816982478616
0.0288105261438517
0.02342029348975914
0.02338033744538173
0.02350792138997451
0.02318446721448476
0.03133210417039049
0.03067587051028815
0.239239839457886
0.1558598835414929
0.02654090164177951
0.02661231646922869
0.02499851445919183
0.02414368105872421
0.02596921583802803
0.02511426406472229
0.04735968662255376
0.04545834962027644
2.493094342037834
2.519859390779185
0.02187265268757676
0.0218424842210001
0.04488375786025552
0.04337901122730951
0.02580312400580639
0.02639696081441577
11.78125322361404
13.2328755936925
0.02024175694527666
0.02041652659641973
0.02075398860102661
0.02004183360582138
6.16936062563339
6.919369556553332
0.04461620077000014
0.04319025734287407
0.0225148189640182
0.02224002328842122
0.02205826031735614
0.02042615390568056
0.02004804006509671
0.0202165155497136
0.02179496129443488
0.0222439754793148
0.02177805314451297
1.200308534709455
1.599685169578247
1.349060391698634
17.80043378216644
17.16899730061869
17.08212561335898
16.6768685524505
16.56073684144345
0.02154057282817081
0.02153221919551772
0.02120122600980359
0.02211447066250975
0.02219386864199317
0.02214705109238571
0.02178949468973789
0.02190358609624726
0.01779283291755753
0.01779512379212747
0.01779715935061301
0.0177943937280312
0.0177928117981502
13.5409712528581
13.88556209975662
13.70221715898439
12.93781103430766
13.0250671567934
34.71994282953775
45.24250689292632
55.25929387398057
38.71525503125395
35.27609530813508
1.554830955972569
2.26519744666855
1.778034297206791
0.8820118787693388
0.9520453997599513
1.63148833107798
1.586473724947943
27.88953117521552
22.97733743999215
28.41174644724105
1.882184193182571
6.184412283632771
9.415865409019895
5.845869969260413
0.01915311625987696
0.01919380985562175
0.01921313316305091
0.0190920623722696
0.01911288002101022
0.01931346731008081
0.01934029298132291
0.01935951714534261
0.01927168520362645
0.01924840446712456
0.01971390915007962
0.01972443746895419
0.01972197584136873
0.01956077025159251
0.01960665675212375
0.02026353590620433
0.020161130477044
0.02013914933944035
0.02032523186191091
0.02031650519500157
0.02218184325526549
0.0223711055563601
0.02258692982001847
0.02278774328433632
0.02253906706182447
0.02168307988012559
0.02148194102372325
0.02105089916579038
0.02088282190132423
0.02093387878416523
0.02076749593755278
0.02056712429774106
0.02071559783190274
0.01986848257171265
0.02024532516803252
0.02029128849791066
0.02492174944509745
0.02488475969933883
0.02684232353388397
0.02601562034845705
0.02594456711826715
0.02940214314382167
0.03002998292913592
0.03089611570415976
0.03178908180733785
0.03065362244256402
0.02283372075681129
0.02273237434743079
0.02268113567088503
0.02128760229269641
0.0211166842848618
0.02027355912535692
0.03477011417873695
0.03669051054874909
0.03507476597381298
0.03703928215286931
0.08501940594768793
0.05491253429274068
0.08609444592119818
0.04637448919239873
0.04627848617807353
0.04394588208255433
1.913104767783524
1.923271848030341
0.02278940139191445
0.02293111224236087
0.02314269079476346
0.02311819606557458
0.0228998565294611
0.02265913790116951
0.02256544125268967
0.02226252699024314
0.02226642413207672
0.0248500312996808
0.02748684123707195
0.02757120542235213
0.02853179364092814
1.196520906765749
1.228673687123389
1.230234185515625
0.03208884028477074
0.03118778853178258
0.03118624358829863
1.320269275210793
0.9144665314996023
0.9173547540699581
5.238371690472169
7.070794195115965
7.973916884844163
13.22826538757932
13.81716651108468
12.04497234921742
0.02316633976387173
0.02331095213855543
0.02087985689353438
0.02040682027701816
2.625467753523315
2.623877307420907
2.66711666272011
0.02428572042156088
0.02420265364765274
0.02423303023582648
0.02170798285257628
0.02164012257047839
0.02132812853219509
0.02310541927904829
0.02337859998880797
0.04509557422524507
0.04532822524826799
0.04517621655392896
0.02321592851943238
0.02319463534750541
0.02305723067647658
12.62957677154122
12.20110601757772
11.88173160622261
0.01784982565966055
0.01784551230249564
0.02817584816073989
0.02835973580430473
0.02678661287609326
0.02662759176505453
0.02806017806699153
0.02735255556893608
0.01787166144929437
0.01787879547734551
0.01787924362333475
0.02563592508768619
0.02564867643298504
0.02265680352230665
0.02279450104430937
0.02262565684792651
0.02216632037518846
0.02231305649329487
11.56142214990363
12.66450886314345
12.189710342227
10.88986763858547
13.28143736346928
13.08045160395584
12.94657564578517
13.52659394192148
13.42017778440791
63.48101835397268
62.47102431935949
58.97849724612009
54.54360872573826
58.70477989999375
58.95947463870004
41.38995537016013
43.0725091861257
34.2675319777591
14.69458570508344
16.87222429591662
19.2065734710444
0.01937237861005873
0.01935157561049074
0.01928687120014691
0.01920739530994954
0.01928124843749015
0.01784259638497829
0.01784460845228712
0.0178443270265519
0.01784040236474191
0.01784120755225187
0.02204287913334273
0.0223197934891189
0.02276488536815015
0.02329727355618761
0.02282179228708761
0.02242963062963765
0.02281363356163876
0.02301740319651233
0.02150003707754148
0.02162445692494212
0.02157540454945281
0.02130084439581446
0.02135506599543989
0.03138712557224643
0.03207285231284859
0.03282803432566336
0.03147036488925398
0.03210557842824886
0.03284104477100221
0.03152855960841797
0.03211561433553566
0.03280361706380085
0.02743093100128513
0.02723959792222633
0.02691609268584207
0.02688697259657211
0.02676992155240972
0.02637164138867242
0.02608472049944337
0.02640098843401139
0.01771418800378459
0.01771471682121214
0.01772026783334292
0.01771752139921689
0.0177182796778812
0.01772510573965677
0.01772099366068584
0.0177220997173399
0.01772886786247472
0.01773041913458382
0.01772467674894635
0.0268660646081735
0.02674619548773982
0.02660673597531423
0.02627333571665981
0.0262038094304084
0.0259964579912483
0.02571101746659369
0.02560455367630517
0.02540164651194034
0.02398124413048052
0.02363224074976806
0.02338492751401577
0.02410564761242353
0.02381595609231567
0.02362202218801301
0.02420928377687664
0.02399494270363378
0.02376534968410348
0.02428062296266428
0.02404562346045518
0.02381749060857239
0.02424912199302683
0.02435767187855457
0.01782173783335015
0.01782205181973475
0.0178229129549792
0.01782220582321058
0.01782219891343176
51.39093641783278
55.6960948891082
58.59133987793293
0.02294069655818868
0.02283322717112505
0.02251984472574795
0.02268262647850726
0.02259072425729377
0.02236603540116423
0.02218299524677401
0.02238072278616009
0.02628914968474137
0.02623482355707818
0.02609067442003103
0.02566363977908216
0.02552332815287335
0.02538430407803977
0.02517351041565917
0.02505507120497111
0.02484955158238659
0.01783441103174685
0.01783756458111946
0.02427353101227589
0.02414305698733511
0.02398597480934175
0.02399782492300554
0.0242298324191012
0.02466685152356083
0.02453017665510743
0.02438268203954939
0.0239966949599818
0.02423313869688598
37.26894071901195
40.21721564676218
39.43988154704972
26.54173395104999
29.0951547464694
0.02230789281836917
0.02255439556860963
0.02307400577179871
0.02334771166128185
0.02271335010292709
0.03160178087041516
0.03212693968320572
0.03272794469557136
0.03243199355143341
0.03189043318382891
0.02550052741131458
0.02485848475817644
0.02570344619444487
0.02518351590295894
0.02505486756641312
0.02480603236910918
0.02446567689421021
0.02475244413516431
0.02563183184842823
0.02559647923999685
0.02478281886837883
0.01772643861194929
0.01772772555923399
0.01772979617092145
0.02231991483283969
0.02231634470064976
0.02215355592532227
27.30815361987759
29.88089492574629
43.82741198059443
42.11376063150912
0.01952303037052073
0.01891520979291023
0.01885670760158198
1.878612510357893
1.085047479227636
0.1089545622891197
0.0215332521511719
0.02166965176325916
0.02155890906877283
0.02246350052704438
0.02253344126133078
0.0223120774194448
0.0214612007626573
0.02163198372178868
0.02138514081301882
0.02356498462907584
0.02366537996392429
0.023364535338359
0.02192023432904707
0.02209919893060999
0.0220750965518547
2.391451891209736
2.359613525651632
0.01768297360306074
0.01768797414611475
0.01768130784219527
1.116472862174673
1.034460808407803
0.0337204430236294
0.02583131384509635
0.02616697860470763
0.02571475876677798
0.02305928605737236
0.02267664023356188
0.02314837697331153
0.0450678808828988
0.04661439504188428
0.04405571485578733
0.02605451385790854
0.02547326848478347
0.02618401383386062
0.02364069625791986
0.02372700656184503
0.0234955778154414
0.02311618139885875
0.0228583479967742
0.02325849099046027
0.02175894232695513
0.02108932815896196
0.02155119304529557
0.0218067593584
0.02211457551685067
0.02199445589572975
0.03403995734726901
0.03302509383122617
0.03429425447596506
0.02326372584960921
0.02271919211733719
0.02351668156156068
0.02364663968916587
0.02338114985371403
0.02910618341992703
0.02816466459692714
0.02897037190768006
0.02213497901607549
0.02204222167603169
0.02183486467749693
0.02914296170059741
0.02913564635343525
0.02857546428252197
0.02168214700461879
0.02198460292297578
0.0219005149227457
0.02068465135702978
0.02058606719204198
0.02075036940286382
0.02020080204210272
0.02000633669723547
0.01963594438043672
0.02394226167957519
0.02356180700468
0.02424088181285287
0.02485235515543524
0.02181484730783695
0.02159096987030416
0.02187529687757466
0.0443451346366921
0.04619524795881845
0.02374369324659874
0.02356779224106747
0.02303989786953041
0.02028169683290877
0.02063087851795493
0.02058826271082585
0.0226410854506273
0.02230030952547599
0.01784008733727356
0.01784725493905709
0.01784369253859851
0.02129672777439124
0.02126434169462423
0.02102803424400604
0.01786497303869091
0.01786509922400068
0.01785955933584811
0.02096291415487674
0.02069298559344203
0.02098599952765214
0.02117288997604356
0.0212211175953775
0.02103757642464521
0.02121604315454526
0.02144815844264222
0.02122991483800698
0.02106757796875851
0.02123030324622024
0.01995024611054613
0.02007898049826045
0.02011339528297397
0.01884134263750624
0.01894336855738349
0.01873125541133899
0.02052030439588021
0.02029778604605055
0.02058359761615082
0.02074963163046125
0.01943295511512285
0.01954557893856634
0.01949786700472116
0.02164321864044628
0.02130230067416916
0.01954331408128466
0.01950908350085234
0.01940162877674475
0.01943528435474777
0.01786983284005765
0.01786616929181078
0.01786845596449312
0.01782549733226776
0.0178258114317863
0.01782616647126892
0.02042441394971029
0.02029727014281537
0.02015552783971102
0.02958969289004113
0.0303754744021028
0.02963664819569618
0.01862142446628201
0.01863321423617785
0.01850786733533603
0.01845089418540249
0.02173840288311079
0.02164423249097099
0.01857501233087688
0.01850538943539125
0.01867840910814845
0.01871886439613439
0.02117403997457518
0.0210623841380532
0.02091569976874098
0.01817263558702538
0.01807553824663696
0.01816188540406868
0.0178239869613029
0.01782224026368153
0.01782132098518524
16.54267088197729
15.30646727974493
15.80018018020544
24.32061406744476
20.26224543637425
23.70197336274549
0.7209914998878696
0.8926329700710015
0.8989420515768068
43.28326842768007
42.58443940687859
40.82808665089078
0.5262751684234592
0.4521478106377919
0.4800595902079613
22.3993079298453
19.94993022408412
10.51346851960713
10.520652499095
11.06816427511403
11.51735856430199
0.5307871393393624
0.6315658310009165
0.0908184881767056
0.07368167686906912
0.08964248612730447
11.6520528352414
17.44350601361143
15.14529572745558
18.21996798877757
16.3563798526545
15.08261832833218
15.74745441110206
0.08390815296694923
0.06631466691786291
0.07847830079715154
1.058921602165277
1.324546832558086
1.393156493013242
1.145025366269819
0.9782867560648452
0.8745689429867128
1.174036503043923
1.661363967295376
1.408580728811867
20.05068262826485
31.79706713245041
29.29021214736428
66.8203380795475
68.56098995087368
14.23759941386617
14.066548001901
1.493274840549311
1.772240057588252
1.689885800935164
2.302696615681743
3.912069410673507
3.236659094109243
1.976346513477803
1.634761910693915
2.135052469671833
21.5242049558379
23.47456716286349
20.35325228143861
70.51411012681162
51.32476788491127
70.78298601335308
0.01771820860436339
0.01772460943712893
0.01771345764733567
0.01786297765089279
0.01786361815273326
0.01785709829358846
0.01787981471737915
0.01787924898173472
0.01787341581247224
0.01787298248766656
49.07151433537819
36.91650201472872
1.442303618585944
1.868609781391109
0.02125202877575943
0.02156824793759991
0.09957046599507928
0.1132578390129167
0.01756039284960955
0.0175618474060863
0.01757104829973349
0.02435285774553343
0.02404755094449146
0.02423875815139757
0.03311231482624007
0.03308022306448669
0.0325051220882267
0.02167496703303429
0.02190072770480482
0.02195062842170945
0.8088430629734138
0.6564719694445545
0.4753569806506999
0.02143043696589735
0.02121989486219978
0.02153680926820384
0.02179902316142762
0.0220152809438384
0.02165386936838054
0.02270457887350367
0.02336686556499234
1.557989842398433
1.482403646824841
0.01943066972774391
0.01946060284309206
0.03217479744620318
0.03283832984585024
0.03289559035174502
0.03227870741976928
0.02167578181955416
0.02134456578132599
0.02156986024756331
0.02199588313018676
0.02187776819082668
0.02166428558760031
0.02209487946422643
0.02190204245133943
0.02217299964640575
45.05027377285862
63.97613824275835
41.32012323027306
0.02691623746352283
0.02845236004433669
0.8402478446331887
0.8383419159461737
0.03190452413009
0.0327530934405584
0.03283077127665134
0.03199792595463306
0.03097676154701891
0.03104256251168097
0.5741170865480708
0.7814374844570886
0.9149528460396921
0.7093121476054225
0.02334515628464881
0.02359495711942454
0.02321571493535695
0.02276251062673693
0.02006439645271502
0.0203665492247696
0.01828695404457877
0.01842658303634939
77.61627051174503
54.08167231610251
0.02566310815709012
0.02364774135653334
0.02420009857893118
0.02328639262571785
0.02388593870543736
0.02437831659042421
0.0233227411550203
1.355094364869207
1.391608969185624
1.342663701253558
0.0396580196167816
0.04811999250786689
0.01774902657599673
0.01952297481788171
0.01966986473740321
0.02312413243014844
0.02255941704699133
0.01997644705546989
0.02034460016609846
19.80954233750913
8.874584908883111
7.510522603003933
0.02217550394268979
0.02198875404358347
0.0224440786953388
0.02606850310084994
0.02527939908105193
0.02594239481299782
0.8623108626659375
0.789916057874371
0.6713181281182483
0.03026651940126627
0.03014718622259803
0.03115444889094821
0.02682319245837995
0.02626722448037682
0.02688163537253326
0.02761683212825596
0.02762094560145903
5.138068720805403
2.988360592592458
0.02324702531772974
0.02331612672880403
0.02290953306403703
0.02263419748183528
0.02263786828446056
0.0223317999850433
0.02364327477359295
0.02397959650213008
0.02386940285883532
0.03183491247046123
0.02250008491206798
0.02162839802620085
0.02194398989831382
0.02189213361855712
0.02135525869993839
0.02152604446258941
0.02180982621579477
0.02157894079033391
0.02017753177042917
0.02031844978389749
0.01984716261898165
0.01952265352218114
0.01947667973641776
0.01859963877565652
0.01875793049879823
0.01857713712522455
0.1777372030003841
0.08628867171065427
0.1161113465879614
44.02870622764163
25.63417325017754
35.00100149567094
12.82002146031333
12.67906775780777
13.13905744693072
13.33974867997808
0.02346460329633434
0.02442311349899225
0.0250289637025034
0.02498320304016505
0.02568832767483273
0.02653408758299212
0.02644973492749236
0.02722540523337147
0.02130823769510575
0.02125282123585971
0.0234368561937994
0.02364004523305345
0.02340691755442738
0.02371028804564764
0.3617222880656929
0.7663704692646365
0.7949827249352487
1.121738343126605
1.443883484525705
1.536373164785815
1.551770256674651
1.602098998935333
0.03555080891276312
0.03826635452980623
0.03297976600508064
0.03506590753336816
0.03220264389281372
0.0331606676252106
0.0334525600072251
0.0344786939335947
0.03535639681216866
0.0357305223323407
0.04006544657193723
0.04046226079951486
0.02422478660345709
0.0249679862628942
0.02472706484391891
0.02540108778596278
0.04406502896570166
0.04963886267217294
0.04966900578762596
0.05637750001719657
0.02026526211774136
0.02026272999343065
0.02109065055570801
0.02112699513070721
0.02084049334999097
0.02099406724261095
0.01777887240079672
0.01777352915160282
0.01775466945776936
0.02196872686354606
0.02206139962645869
0.02261984336723822
0.02250899635767725
0.02067466033511078
0.0205565379413358
0.0207656190753196
0.01937779124042459
0.01952313347052665
0.01958321387041227
0.01975851630036939
0.01783621901821137
0.01783791010582207
0.01783967694405995
0.017841951890274
0.1525490570782278
0.118079837834384
0.1043559821810513
0.07726885841183756
13.66610571968944
6.418499713109237
0.9926554268367288
0.9145496661389831
1.225750799204168
1.376928324811177
11.27541562404574
3.4012449922567
3.401522223558577
2.401740164605133
2.726255266127401
0.0214733280140654
0.0213130439283989
0.02206167354571538
0.0218474027608964
0.06285563269182673
0.05850737212430548
15.51046769511096
0.9182614145775395
0.8905802797289867
1.006838060989021
0.7769588030926073
0.0178223350178842
0.01782206274285384
0.07048571365029171
0.07316867638685184
0.06779040186815413
0.01938079093288833
0.0193404518682183
0.01783471007045408
0.01783304299629332
0.01955347218381212
0.01950641313933663
0.02039254985702226
0.02033540877953876
0.0201461370490085
0.02020710072791069
0.02006103365317158
0.02010281646164007
0.0203845246806043
0.0202247318526812
0.02269004788237985
0.02332535568338441
0.02424243544488158
0.02516053128821791
0.02792278119912717
0.02765004595220618
0.02020242449419453
0.02025112098991695
0.02255496695429115
0.02313187506490284
0.02569295539325181
0.02596848445588039
0.02530818813389253
0.02451517827488658
0.02262226337437096
0.02292410187236744
0.05622979097146912
0.06503124300552758
1.162997244274115
1.157286341635505
0.02309669910057478
0.02269113736430535
0.06086798147819096
0.0780972155183224
0.01773283079693988
1.34426230947954
1.36124112920832
0.04216549628319564
0.04418922304077765
1.425596399156115
1.42585102426616
0.01765696993216766
0.01766413747585856
0.03116597724556924
0.03101803971038183
0.01774732576842266
0.01775898413581992
0.02271994548612786
0.0228332150477063
0.0243738010955859
0.0249803532257775
0.02598014684531289
0.02581494568945543
0.03198711361175034
0.02175907207470607
0.02212929777203329
1.329891311011117
0.06073423736208563
0.05318992857956446
0.05306715576774431
0.06061820570666857
0.06985088091855167
0.07041898783405809
0.06232740359029922
0.07111694062531747
0.08431917808777711
0.1089854588159219
0.08729210569420408
0.05501635935833615
0.06141316415848218
0.02738605040459985
0.02677081682884101
0.02736616964667308
0.02681378467187016
0.1635018979227872
0.3435639508902423
0.1752688623218371
0.03168400199184921
0.03176186700765274
0.03196004261734083
0.02413623671845897
0.02430361389343233
0.02167765905805198
0.02181508487619637
0.09049267394933631
0.09308307542643134
0.02149671281212262
0.02170503954621955
0.02152511272190065
0.02120597140116763
0.02253843499421969
0.02265275535558078
0.02253519041665436
0.02248707449820506
0.02291944126947522
0.02230316497661405
0.02247213322629081
0.02234299751615357
0.02251731663040124
0.02232605668495873
0.02246528260583844
0.02268517310542712
0.02261551267400648
0.02290483162610693
0.02322852561160927
1.153796195176892
1.142299483383521
0.02336242247408056