/*--------------------------------*- C++ -*----------------------------------*\
| =========                 |                                                 |
| \\      /  F ield         | OpenFOAM: The Open Source CFD Toolbox           |
|  \\    /   O peration     | Version:  v1812                                 |
|   \\  /    A nd           | Web:      www.OpenFOAM.com                      |
|    \\/     M anipulation  |                                                 |
\*---------------------------------------------------------------------------*/
FoamFile
{
    version     2.0;
    format      ascii;
    class       volScalarField;
    location    "1732";
    object      p;
}
// * * * * * * * * * * * * * * * * * * * * * * * * * * * * * * * * * * * * * //

dimensions      [0 2 -2 0 0 0 0];


internalField   nonuniform List<scalar> 
44936
(
-0.0006785128986011571
-0.0006432320965604656
-0.0004439193882271707
-0.0004784222154977139
-0.0004516824885914962
-0.000697581320520153
-0.0006952023253620055
-0.0003378334401961966
-0.0003285464706441753
-0.0003209354398479536
-0.0003304792228354408
-0.0007211401082144439
-0.000746316952370876
-0.0007152330387848431
-0.2833681985650749
-0.2801276321567124
-0.2795086321598002
-0.2796503668321653
-0.2802732289921953
-0.2543975168801345
-0.2566371761659549
-0.241824653977359
-0.01824463345155853
-0.02107124585178704
-0.04513517977364891
-0.04381317202118104
0.0404316022242872
-0.1108126613057441
-0.1097923057483271
-0.02752087736994292
-0.02867896607629664
-0.09217047723580084
-0.08867410507533025
-0.09224856099951841
-0.08943118372862084
-0.08454544605068759
-0.08611220838228255
-0.2821273647196708
-0.2208490866598678
-0.2799509218221887
-0.2819950669442081
-0.2818607135403081
-0.2793828288346686
-0.2871702821321678
-0.282618780105229
-0.2863695850200576
-0.285303624174747
-0.2176294849490144
-0.2546257345480524
-0.193145415204176
-0.0101368367705736
-0.007808893655499935
-0.004891768672955528
0.1202543728592395
0.1161454833128757
0.1305670505849277
0.1390847690297418
0.1331466358316128
0.1245884523237586
-0.2641533219416334
-0.2658258475987376
-0.2690757609652801
0.3178815899923548
0.3260405037155626
0.354977517805257
0.3471486748988477
0.1829061850578605
0.1932811785348691
-0.2985258955448198
-0.3065408872682708
0.2370328541698578
0.250095170780906
-0.29505008625215
-0.2964783386501229
-0.2923387858088262
-0.2881748394732043
-0.2867703111872355
-0.2928406063770597
0.1031446020498729
0.1176120131974616
-0.1895161785150021
-0.2144890321403931
0.04912827222973994
0.05113190919720863
0.05485928985547223
0.04898266158675145
-0.03384538580136429
-0.0390922452418894
-0.04628174732863963
0.01167124431532471
0.01132116921172881
0.02152252159815125
0.01855435705972881
0.02225929577340154
0.02485091982093772
0.01269600524746521
0.01240580252194045
0.03912905988083394
0.03528795962351886
0.03627144392833655
0.0143538136801195
0.02267162672387334
0.01888862104037736
0.03322427211589991
0.03110380300892916
0.03140877511686543
0.03817949932322166
0.03629471436769621
0.0163947058794596
0.01652035978856019
0.04712982745821213
0.04584398309627456
0.02359256433619993
0.02148849168415019
0.02239952426247166
0.02757073127523259
0.02850749342933429
0.02535360722979322
0.02477948937361959
0.02633712583586088
-0.004727855730066528
-0.00490798646748102
0.02208264162529812
-0.02080488110687643
-0.02275267123032277
-0.02354182811404281
-0.02421740906253372
-0.02283189290905618
0.04487308750977458
0.04213136083813761
0.04550507974139337
0.04406535615115763
0.00903189522987463
0.009301619245894942
0.0104126792590869
0.01108340715033559
0.01120304671627008
0.01039442291476844
0.0002674827390927988
0.0002838490991489391
0.0003120784600752725
0.04133022874412602
0.04012990377313441
0.03964731339252434
0.04102280918215775
0.01646353701468457
0.01639845229534632
0.01733445470847449
0.01745845158384561
-0.0409548845881577
-0.0382238187661356
0.01270754134082459
0.01296995485814471
-0.007076322118984705
0.0004084645871717577
0.0003826344968925169
-0.00336486568575361
-0.00339892447081373
0.0002509376068549963
0.0002565869605977575
0.04344344890669266
0.0432636217726937
-0.04478220944104608
-0.04203147462270068
-0.04030309031920218
0.005298097723270627
0.005308442702020303
0.00622079376220765
0.006302766978341521
-0.05000450898442486
-0.05203457500646796
-0.05017031541554949
0.0005134803564478743
0.0004838359212801023
0.0005666539283756311
0.0006066151408920707
0.0005708093527634593
0.0005379292205701773
0.0006175689179383049
0.000659902413144936
0.006067319574734076
0.006183344625896624
-0.04383900264001979
-0.04348920971183348
-0.03991276029079234
0.0004273652363514586
0.0004286141378649807
0.0004462461647335005
0.0004349121997030496
0.0004485294902711619
0.000449868145339403
-0.0528356191026172
-0.0542876060365515
-0.05329088284210878
0.006039923629817588
0.006207244226617022
0.003833607082243898
0.003838238069335324
0.004082755996482038
0.00421814076202785
0.0005221964277005057
0.0005216455728695305
0.000548982470706847
0.0002569748979046514
0.0002473924577870002
0.0008162923761869602
0.0008801079299007444
0.0002807987515754993
0.0002703247483511747
0.000250346620826421
0.0003398949209950329
0.0003467587987680027
-0.02382569337586407
-0.02699714525217338
-0.0254509342387185
0.001064667971745698
0.001138052920763167
0.0006123654632315817
0.0006199088001375989
0.00230172308196306
0.002350824835206817
0.002255621288636852
0.002227859465538768
0.002186861873944138
0.002198623921013217
0.0005748331996568472
0.0005918513832431311
0.00273039355075153
0.002801092593102836
0.006384793683283444
0.006137962750271308
0.00211243706649485
0.002060241593974752
0.002008147868126938
0.00188686511825495
0.002074923887548861
0.002161921796495135
0.002143029852310797
-0.02537352179401566
-0.02617015289351833
0.0009933864122442253
0.0009987275599648848
0.001344980768757054
0.0014222749199268
-0.02001810502310369
-0.01991184751326157
-0.02065190104900124
-0.02129669225971833
-0.0212223936301761
-0.02061160489735984
0.001563188397651643
0.001587148200102888
-0.02029841599553376
-0.02095560989731102
-0.0210851124249037
-0.01147064258715988
-0.01111318673680497
-0.01058924542224439
-0.01033440430719175
-0.01086144344119144
0.000480314160983547
0.000472743028848251
0.000476349648933618
0.001406887522001486
0.001416385158479331
0.002865215705934532
0.002760902750013271
0.002996675599456701
0.003045274113220469
0.002903486648891064
0.002888898514758763
-0.01142113274900633
-0.01165228594866229
-0.007641251168440573
-0.007684960182795671
-0.007895138987894814
-0.007952863686337837
-0.007827042553271976
-0.008226574689637594
-0.008080843020582795
-0.007341425552637261
-0.00739684476729126
-0.006124704507178206
-0.006063232236324682
0.002542386053203498
0.002628308193044041
0.0005724698173477192
0.000595971518130828
-0.004808607764407586
-0.004751089525333402
-0.005141116924482885
-0.005434853559591868
-0.005262208337033693
-0.005050832971908759
-0.00483407635864128
-0.005020440522104811
-0.005131858430468983
-0.01270737707770935
-0.01306580932156238
-0.01325704959029378
-0.007056047056881542
-0.0001873226386126962
-0.006244116320740786
0.0008163096654518225
0.0008623480049615472
-0.006975296559090125
-0.006965572132412922
-0.006695664581417788
-0.006453444390488435
-0.006720059587768602
-0.006016416943024517
-0.005765546865331625
-0.00591381767838137
-0.002381274464549269
-0.002438949469832466
-0.004273384916986554
-0.004597872699849916
-0.001907489624568989
-0.001923315652180853
-0.001824652435661607
-0.001844322793141113
-0.001864882072467754
-7.57389961741662e-05
-7.560004255168895e-05
-7.505231133206836e-05
-0.0008829748700196923
-0.00190329319306106
-0.00185343954604535
-0.001959834259146462
-0.001959505868887804
-0.001912274914034219
-0.0019128356609179
0.0004250073545211394
0.0006389292251276727
0.0006247350070776534
-0.001388305528206303
-0.001380815054214442
-0.001852317261663493
-0.001804416328910657
-0.0002252705357627673
-0.0002088247071412229
-0.001092947089123888
-0.001101506390113751
-0.001385719676328714
-0.001426105448591614
-0.001092708829003743
-0.0001543125095105922
-0.000138428750219071
-0.0001488661639660982
-0.0001617426979438244
-0.0009149229920361005
-0.000929604140212346
-0.0009531083725358517
-0.001229505273636269
-0.001273003599895998
-0.0001960806791788563
-0.001158563098637985
-0.001201616411525954
-0.0008314226817567566
-0.0008024900760301769
-0.0006298194519023864
-0.0002421927674222018
-0.0002524659348005759
-0.0002537353917392053
-0.0002504337318399887
-0.0007103151927943445
-0.0007301368525943114
-0.0005531353738002366
-0.0005696399230749845
-0.0005688822374374748
-0.0004606555989931126
-0.0004637158036722547
-0.0004582281009458838
-0.0004528907834470792
-0.0004707072578298499
-0.0004323016676659426
-0.000444452900066069
-0.000462802049694377
-0.0004787402225154466
-0.0005192049340647814
-0.000478064049986961
-0.0005302081111718571
-0.0005685876515507439
-0.0005093916541038149
-0.002584182370666782
-0.002733166527077483
-0.002649430128080913
0.04358655216218334
0.04634580677384165
0.01831178872721295
0.01876522085124466
-0.2855504386315727
-0.2846965693264091
-0.2249179678176616
-0.2384478946497088
0.02155186211593486
0.02140390867920373
0.02256012843632149
-0.013658854744634
-0.01384769298793696
-0.0152717444528563
-0.009425928484685608
-0.007114837185070703
0.02887167696619143
0.03084330443797497
0.03262007230912149
0.0385451783785631
0.03899223851091566
-0.05603748755793232
-0.057328290979226
-0.05245946249382971
-0.05178016264858792
-0.05183870590430638
0.0004565375072176536
0.0004445643996636006
0.003249835668249595
0.003033839912806132
0.003410656434003538
-0.003591194955083316
-0.003686051361958321
-0.004987918337631153
0.002512732751174785
-0.0006461736362673897
0.001345799961195227
-7.651599184686729e-05
-7.422916121858972e-05
-0.0006688213745654354
-0.0006498255835220899
-0.00203060433457769
-0.002128502234816106
-0.002192010063179691
0.001408803039390584
0.001373192716085025
0.001434095422976778
0.001406112734193218
-0.2817079969433453
-0.2813506961181771
-0.2805592848321065
-0.2816395595514003
0.03608666388925034
0.03402228717192275
-0.02751328850978725
-0.0263728189835135
-0.02763199464369043
-0.02675046985752955
-0.3631686254876983
-0.395669418069628
-0.3567217466601056
-0.4298158251945726
-0.4176436842676883
0.0324006708261522
0.03119993891214539
0.0001419236527713198
0.0001471313738554662
0.001379476586802077
0.001440248808318467
0.03031974963706078
0.02921774448239333
0.02997988591423971
0.02901018092860868
0.02929818135498844
0.01304221465765398
0.01330840084885053
-0.005862307105700965
-0.007113988588032796
-0.3244413418618092
-0.328111196647317
0.03013036853825193
0.03144787411507729
-0.2898625690953448
-0.2902950895039688
0.01310469098529661
0.01459160135465263
0.06173828506460128
0.05776816910366684
0.09509092036684835
0.08522863829959884
7.060315102709377e-05
7.557818645416506e-05
0.03352088032237901
0.03610812014162836
0.05180829615421782
0.05301951683406346
0.0001385930129644244
0.0001341005597844945
0.03508552927886663
0.03529406213225349
0.05388840004677637
0.05512672262364035
-0.003457198140353042
-0.003156000351240535
0.0060071515205622
0.006153981778382621
0.0004407730832240056
-0.03668386702850934
-0.03583759740494391
0.0007741245765360994
0.0007738772408653278
0.0008473170075778022
0.0008704708917519478
-0.02283061284353933
-0.02234687661132891
-0.01116858905301928
-0.01101391875638948
-0.008389834209655113
-0.008309395259558591
-0.01654943373344401
-0.01673531924510561
0.001913186878420029
0.002125053012614536
-0.007447400073322545
-0.007565788995598806
0.0008954398623320691
0.0009147184441610401
0.000882748492877092
0.0009038015105675768
-0.004619395646192851
-0.004910189438966212
-0.002620932199652829
-0.0004523789493126867
-0.0005201416314375198
-0.0005115719079085795
-0.0007443039560656037
-0.0007837223406987917
-0.000551570687115865
-0.0005422227290231892
-0.2840014674034041
-0.2845887755363258
0.0004816775445872597
0.0004381304694635908
-0.0002664638589808674
-0.0002874272029003908
-0.308457968856082
-0.3153302410638159
-0.005200968262455734
-0.005377057438225852
0.006481930721393224
0.006492444488264287
0.006617415178516727
0.01939031204849998
0.02140553141638634
0.02035865341861691
0.001481933709101403
0.001437366091103102
0.001484080062726487
0.03791994168845224
0.03478281356957252
0.03456342589351558
-0.3128607004873565
-0.3150001392986587
-0.3152996318775674
-0.3134848040520328
-0.3122269524729573
0.0003455854980884484
0.000354721275941128
0.000365744401560271
0.005837366033402783
0.005889486503460633
0.005981524479716015
0.006045478324229627
0.005927726504016921
0.0191031686561187
0.01893873961488471
0.018700078476622
0.01864382309228677
0.01888444400299586
-0.2904760060170263
-0.288376170713273
-0.2871181974693026
-0.2867778892088163
-0.2889214558799618
-0.3349784809502899
-0.3387921521543077
-0.338571651394678
-0.3405000834388068
-0.3399664848953199
-0.09339251878900573
-0.0989393247808715
-0.1025115883018664
-0.04715447485488068
-0.053415743272842
-0.05728243083152582
-0.05516791999918059
-0.2894224698707447
-0.2892316121522753
-0.2807225248631239
-0.2712258819231415
-0.2846896981409717
-0.2864365771574142
-0.2821509817102439
0.023726511489481
0.02266258348221354
0.02110949363657632
0.01962618870788744
0.02160231309485699
0.002396344274276032
0.0008470981317371027
-0.001474740427358259
-0.001932889540962863
0.0002500633860352913
0.0430221289341349
0.04403024569659005
0.0448567621802345
0.04415887556977841
0.04351898671265596
-0.03699755267731733
-0.035942524750131
-0.03456840747262167
-0.03630603814179319
-0.03712667763609754
-0.04895580748105722
-0.04989574862788657
-0.05101155583077924
-0.05072785526797918
-0.04989656794708451
0.003272958625640875
0.003361495927731981
0.003425525436503972
0.002881375854035112
0.002975074379682216
0.00304995978657913
0.003160409419293071
0.003027145282588964
0.002480577299044335
0.002356502877931496
0.002320570959173541
-0.02677919042369091
-0.02591561967134172
0.00261704875576621
0.002676300991557652
0.002630358562019671
0.002475893751753178
0.002415955785044131
0.002354250450252725
0.002349430276500382
0.002421467306474162
-0.006417462338268501
-0.006597858181963239
-0.006446572100549802
-0.004809398686181467
-0.004762170863844981
-0.005025466846675204
-0.005532581669839424
-0.005429475378813222
-0.005658932852370002
-0.005229717378028718
0.0006174126009837118
0.0006636066523574968
0.000699702392482542
-0.00359822341645343
-0.003634161805961965
-0.003805696339331674
-0.001779608607973723
-0.0007678339499612907
-0.0001304585515845729
-0.0001251194071288066
-0.0001252101601074484
-0.0001286659041375822
-0.0001306414530682789
-0.0002068726824666304
-0.000203235916957718
-0.0002270610069967241
-0.0002424660835947301
-0.0009607019359194966
-0.0005454206931852991
-0.000545566012330175
-0.0005239591151047263
-0.000404075578456948
-0.0004499803055926703
0.0004581132738097438
-0.005757743985096476
-0.005957326723580674
-0.006087280276508513
0.0008408985467895028
0.0006547407720709039
0.001227124839744998
-0.1088578788851633
-0.1151807681528066
-0.1107992851350405
-0.2864682534156955
-0.2822767000421482
-0.2876659208176118
0.0004568857554597925
0.0004456719633731447
0.001489275416922226
0.00154680411958893
0.0008058697661506132
0.002432603941197951
0.001827907997545321
-0.001009134001493617
-0.0009886679690571452
-0.0009961988497691468
-0.0005513963197191287
-0.0005914800298058041
-0.0006273737317786776
-0.0002450982002741382
-0.0002420837301853377
-0.0007454232257376378
-0.0007581467937486614
-0.0007613957484548735
-0.00043346055394805
-0.0004480724813879514
-0.0004596098820997265
-0.2243836001629533
-0.2050408377458576
-0.2207244684150202
-0.007398920485381375
-0.007435209057711605
0.0002368309019543892
0.0002386786390207735
0.0002497679853049717
0.000247851557341012
-0.007191526737163921
-0.007384862810574905
-0.007622304754483584
-0.007401181457841788
-0.007681636055315878
0.0002602336120892205
0.0002627266066662418
0.0004527933726825595
0.0004564726661074143
0.0004683507784945722
0.0004807351962064625
0.000466606590601896
-0.2845182001350949
-0.2779695486586409
-0.2818197484560848
-0.2838621292245947
-0.2956434307719186
-0.2929864727065492
-0.2912521283171065
-0.2912891993759684
-0.2933826596366913
-0.3385739780292274
-0.3350639272824942
-0.337718387705833
-0.344230362851933
-0.3292197723389084
-0.3339722812748975
-0.3409673707014036
-0.3144869188278793
-0.3287956638052408
-0.2962427087896318
-0.2978958506660755
-0.3011029340080129
0.05245458351216545
0.05169274603874038
0.05110951716805719
0.05004211032690536
0.05081906934258934
-0.007495342238191239
-0.007319558700523208
-0.006946504356133236
-0.0071413003048852
-0.007454851631150986
0.0002996761097012837
0.0002909299746443264
0.0002832368625302101
-0.04323537264632081
-0.04204122372449525
-0.04112032011887293
-0.04277072956599501
-0.04333905707051566
0.002744457240377027
0.002781722841370293
0.00284230901438977
0.002897302023783203
0.002812046217707438
-0.01602676946778402
-0.01584551711336486
-0.01560786694584458
-0.01551955819587912
-0.01537085287024834
-0.01512519077698647
-0.01503571738834263
-0.01492624969119255
-0.01465395116038219
-0.005168104649355595
-0.00513920413851219
-0.005128565269702797
-0.005287503149697532
-0.005238482345608054
-0.005260493078703443
-0.005399546561679233
-0.005367487925305726
-0.008236700409439579
-0.008198386869169964
-0.008192100038260944
-0.008494777396458673
-0.008427113447558594
-0.008464976434858532
-0.008771761347351336
-0.008674531609882963
-0.008768446838969176
-0.009052611140216856
-0.00895542563175547
-0.004224737002652003
-0.004193604212746132
-0.004153769481063867
-0.004348813584371805
-0.004303423905268224
-0.004274102268238293
-0.004443685733417838
-0.00440277456969607
-0.004391971643260002
-0.0004262648638039886
-0.0004363339139334171
-0.0004463458854997063
-0.0004236649772096678
-0.0004294726617306394
-0.0004392957768951263
-0.0004196980704459466
-0.000427876485450371
-0.0004404723470335573
-0.02567386984369321
-0.02577486314451694
-0.02613545507310845
-0.02699142846662184
-0.02637834936833804
0.01267709414203887
0.01268729911341179
0.01224752556433083
0.01154320042814049
0.01199085722110011
-0.3310610296008347
-0.3214897767031331
-0.3201986511437956
-0.001068296616829285
-0.001073714704837957
-0.001101713371488608
-0.001119667436605787
-0.001114186908281378
-0.001140754715906761
-0.001197438902891652
-0.001168645499752854
-0.0007128275859631637
-0.0007224339731276824
-0.0007304300382756203
-0.0007250878443841736
-0.0007471797733266301
-0.0007557421551201664
-0.000745593889496129
-0.0007693779676506091
-0.0007749731925220341
-0.008076533582982931
-0.007742019695091917
-0.0004206774254600767
-0.0004196138042765195
-0.0004251504029880255
-0.0004453578165315256
-0.0004284129212953199
-0.0007647624972910589
-0.0007903754908450765
-0.0007967403234057772
-0.0008106454564029284
-0.0007967332507766204
-0.3294527862251971
-0.3160478996177409
-0.3071061283651625
-0.2983845017596231
-0.3183619269544903
0.0002957190882094667
0.0002880743581653653
0.0002809939081741713
0.0002810543025852101
0.0002882693761111769
-0.01461539609461291
-0.0145237248385555
-0.01420778795430703
-0.01378825543863469
-0.01411980535860293
-0.005777140768443486
-0.005928450713045898
-0.005606296871404205
-0.00455686583669536
-0.004515488103846303
-0.004524328509793871
-0.00465545469119397
-0.004630220178513432
-0.02777858955487369
-0.02859208316673166
-0.02763753538242145
-0.009203683770581131
-0.009212104581527065
-0.009567934312362872
-0.001220926884225057
-0.001217549334649235
-0.001286935505908429
-0.2981304203869722
-0.3121285756070332
-0.3157380826048504
-0.2976468591509552
-0.0007135260882650147
-0.0007623991110211718
-0.0007082519664261274
0.04597314989246001
0.04935837220440101
-0.0006959125446847252
-0.0007019878726315904
-0.0006775065875969248
-0.0007081381977768143
-0.0008103933717643841
-0.0008133591094178576
-0.0008341481407672751
-0.000795922166807562
-0.0007883796543064512
-0.000860612760296961
-0.001094683158105647
-0.001097310951217491
-0.001124515989135259
-0.0001867445082111286
-0.0001816081487691935
-0.0001787665468108
-0.0004967967991530934
-0.0002995700766129416
-0.005707556668029606
-0.005820117342878454
-0.005774681460578747
-8.07354515757716e-05
0.0009057359378962241
-0.007222741703814487
-0.00409547546662857
-0.004009951605799735
-0.00414652161440183
0.001082569115937427
0.001121531136183498
0.001102642620625168
0.00132800932432446
0.001270630131251073
0.001321727710064706
0.00130664090882265
0.001351358122319291
0.001328701546754243
-0.006654134468075018
-0.006813406196096294
-0.006916138748857351
0.0009494252100322773
0.0009726093478459127
0.0009599526636124271
-0.006128373929660774
-0.00614587033626897
-0.005758721979155838
0.001142547451916176
0.001118172740111489
0.001102910174496509
0.002194853943024364
0.002240041913880679
0.002231136174607952
-0.008728345419486156
-0.008737188246152341
-0.01008985561025861
-0.01033625580837356
-0.01060530766483837
0.0004868206666434647
0.000499033407868767
0.0004913921239945177
0.00092644076185721
0.0009132356868996093
0.0009418410718718248
0.002398510890163061
0.002359230790509694
0.002426867936546918
0.001621743482211717
0.001602619550748121
0.00157284049631762
0.001911638917254632
0.001993793604512026
0.001942610770495266
0.001936923939244133
0.001851884005951193
0.002024746702469066
0.0004421896590817871
0.0004550660613443096
0.0004424010760123498
0.0004281294405025108
0.004217366874187845
0.004308551857152391
0.004280874714619327
0.0003001067203064366
0.000289645582832153
-0.04502236111543941
-0.04576116509567512
-0.04429437537353571
-0.02865805316439709
-0.02940285731918145
-0.03034290211953404
-0.04402429097221434
-0.04233606675806305
-0.01150177193665471
-0.01149860096386704
-0.01152409093329767
0.0003774884648687322
0.0003762837667886726
0.0003869214252278803
-0.0102360262051517
-0.01034542924165287
-0.01036336010949786
-0.0451685936239212
-0.04448043331537885
-0.0468303081859267
-0.04726893044590363
0.03804184893497473
0.03860649214696375
0.04043667976624785
0.03954598025223913
0.03322943203467144
0.03316820586959252
0.03412539548727613
-0.04403606443635904
-0.04597129789109095
-0.04526862315710824
-0.03117807687885327
-0.03281202593602998
-0.03070112985596428
0.02089089673665978
0.02183151218294176
0.02234899382142715
0.02134315341067911
0.047969412377719
0.04900734596324917
0.04759848791720842
0.000129074873115673
0.0001343269328228233
0.01288747334827074
0.01478396183703551
0.01346017645641317
0.01118532537873372
0.01518990935825047
0.01526233769568683
0.01538375026443617
-0.009549934539651982
-0.009596158710467264
-0.009364639578776174
0.0001295023674078434
0.0001236171040303692
0.000131657579189665
-0.1042900558837334
-0.1084274918912052
-0.1060453941242202
0.04097151571019197
0.04125492267637677
0.038812455173086
0.03818361951732495
6.957168285839642e-05
7.569560274117801e-05
0.03884691506072501
0.03561326833163315
0.0381725776767278
0.04165257429273033
7.21801710486153e-05
6.991342202219343e-05
7.536605236965369e-05
0.03162602962320635
0.03090522094311935
0.03310591241428244
0.01665654653814886
0.01651362084546086
0.01696847289663307
-0.2934688906127946
-0.258395616601365
-0.2680519427394926
-0.3015276615259794
-0.2665352005142192
-0.2641815066076099
-0.0804687001798064
-0.08202621417856658
-0.08864654255207895
-0.1386400100964708
-0.1717541200539846
-0.1458341564666525
0.04626711628728717
0.04659563251818962
0.05033822645576857
-0.3073092558158927
-0.2918495113206675
-0.2820003094176746
-0.2837297947872446
-0.2818062700931945
-0.2816598503986567
0.05312511694849512
0.04731719152403153
-0.08564658104929292
-0.09536748172860571
-0.1456882981293641
-0.3158514067826492
-0.3216869976680409
-0.3266012118981363
-0.2988800779810187
-0.3005242934608121
-0.3010986961559759
-0.302184321076481
0.2004082760812797
0.1759780201027575
0.1674598643255832
0.1526705576260462
0.1553911854318296
0.1502688099001461
0.1469308116724181
0.01135610817735573
0.01004484514477674
-0.000172204585394919
-0.0002267160206502915
-0.003073035247732197
-0.3634014811549949
-0.3641679150561305
-0.3763783758293168
-0.338601830372752
-0.3351608260562688
-0.3022587478542766
-0.298847057368396
0.2034570434770597
0.2060422250815614
0.1990066028857241
-0.009974113608093546
-0.01046594873322128
-0.01190536788423564
0.0166765044236713
0.01841076489781759
0.01826884194242119
-0.3236838173773829
-0.3199752633310471
-0.3195073333446031
-0.3553412670718654
-0.3372545938715423
-0.3306523385775292
0.007568655709952726
0.007764087507551444
0.007648674539964657
0.01691761591111419
0.01697169605979812
0.01694687057550065
0.0131706312204586
0.01291579216647132
-0.01028765286868156
-0.0101445618180836
-0.3329965065858767
-0.3284186260995048
0.01749856469948053
0.0155504541690993
-0.01055347740396617
-0.009931804174769812
0.05290029449433301
0.04701335206278022
-0.001308671368585817
-0.001165016308831906
-0.001257641008742224
-0.01371892241682995
-0.01364774180779939
-0.0133561592135225
-0.004488909501665602
-0.004582905885364065
-0.004608106162674498
0.001211043249832748
0.001194522841643373
0.001173460903493373
0.2039673937534419
0.1931293502006176
0.2025772258318764
0.001785720344637578
0.00185598141983615
0.001818386036806208
0.008348816811230189
0.008080119676073918
0.008403769489858121
0.0002932343541772319
0.0002852860104956539
0.02979477177425416
0.02839594211073617
0.003428693256134441
0.001527745754862933
-0.0005757690452941903
-0.0005603526997898263
-0.0005598143784817167
-0.0005732006314171521
0.02502896856325675
0.02510754240238771
0.02580307180453274
0.0005461487704562529
0.000542510052845706
0.0005564164530380288
0.007078168779683096
0.00727240467013059
0.007155022052220103
-0.3427307771708843
-0.3255682176615922
-0.3277376903277464
0.0002538319917209104
0.0002433291372278231
0.04966185266464436
0.05275069262142158
-0.004133590714021339
-0.003966050559829991
-0.004028235724331385
-0.004193745398249662
-0.004235056775273701
-0.004301375574801362
0.1446817553299533
0.1496405530937352
0.1407863127519224
0.1365173231702395
-0.00269017038459285
-0.002592635307569201
-0.02416003781291075
-0.02424044314345778
0.005154802147882257
0.005026352349351605
0.006540701462856605
0.008985738838007483
-0.216278517184229
-0.1762608913838213
-0.0005737250559072008
-0.0005076587258433281
-0.0004816633504113993
-0.0005275563738580508
-0.0006190645257963303
-0.0006039014069729927
-0.002841337031824273
0.001762872177105232
0.001697610634584291
0.0008638908993852446
0.001399191648404731
0.001310597646300885
0.009888574120220333
0.006098070554807852
0.00574252460147892
0.0001322233259225197
0.0001378497285193435
0.02799720390939534
0.02819830441985648
-0.1340765575302189
-0.1147978901001967
-0.3245781588011197
-0.002136241464051577
-0.002260924078178068
-0.002116390909657762
-0.01007648687335215
-0.01028108214416843
-0.009827989614841069
0.055437136219413
0.06256058934441486
0.05993527881877685
-0.004523658167272504
-0.004466307456024485
-0.004361130503505805
-0.005032229090844611
-0.005046062128037176
-0.004918769277362175
-0.004862635652614771
-0.00492581499201218
-0.3611252101558755
-0.3449740460837743
-0.000680564470687779
-0.0006677114451477005
-0.0006872749082431847
-8.089144000785681e-05
-8.516857858119045e-05
-8.181088262430058e-05
-0.002496719234610119
-0.002430222760517924
-0.002510935899103756
-0.004069657339355264
-0.02499891908600918
0.0004627880308492471
0.0004263610295605293
0.0004307785328917324
-0.05279316265794418
-0.05445642021634996
-0.05673665424374064
-0.05538850485089309
0.005368532550161663
0.005212221906835752
0.005393647575365135
0.03833284122530993
0.03525395135801467
0.005083044373033174
0.006759538433954141
0.01100805233825782
-0.2123454021295864
-0.1930095183915825
-0.2036904979626509
-0.1714861725373872
-0.145995242247621
-0.1504584487378988
-0.2847581509237336
-0.2844919912432361
-0.2855071631456813
-0.2847393310922297
-0.000500516480522562
-0.0005926680087233254
-0.0005770700758991255
-0.0005958303882174778
-0.000837380964031371
-0.0008113862424237527
-0.0008278098605101625
-0.0007992897090911219
-0.0002109967898098995
-0.0002404526921458928
-0.001870890206721476
-0.001858558706403375
-0.001914676734987036
-0.001884175176899843
0.0009486185094211361
0.0008529307854366599
0.0007706801510157355
0.001710213839330896
9.79825594085764e-05
0.0001676032121351218
0.0001527184827707088
0.0002082342567460688
0.0007481025937427774
0.0007074400254486668
0.0007552723288684033
0.0007230138983681105
-0.005816683039832801
-0.005639271752234748
-0.005717944364404188
-0.005504020768386529
0.0004657713838718776
0.0004752649711593494
0.0004466421779435725
0.0004622500432840615
0.001726315364194458
0.001664317673764068
0.001670083113480861
0.001622359648554651
0.003212069115698893
0.003106173619915197
0.0030589380594292
0.00295391061820782
0.003089276134274182
0.003056918022345705
0.0005907550204850315
0.0005972614210148795
0.0006287364882174677
0.0006205747129814606
0.01056749308131546
0.01029542903444271
0.01021944338024976
0.0003174662100415173
0.0003093885415844463
0.00030619533991816
0.0003135386295319745
0.0004085388934910079
0.02781423465375445
0.02849232965630095
-0.027381228947374
-0.03061224978146906
-0.02771878718258333
-0.02981118765242682
0.01611043280487343
0.01572044278568263
0.0161948062156568
0.01602690091612128
0.1505116671713293
0.1514369125247757
0.139819264449707
0.1415190665880882
-0.3138811540643728
-0.3036377476842244
0.06704343482837732
0.07039341934260442
0.06421349281000599
0.06076645435772694
-0.2837752832709798
-0.06520045858724588
-0.0638259581222398
-0.05978125015466079
-0.05888747741997882
0.001936019703789887
0.00195026175339571
0.001876637654239234
0.001877911285481134
-0.183961161462391
-0.1754534211305616
-0.2812242158309722
0.09624838123238329
0.1004235376396733
0.01845280816547198
0.02171621749933588
0.01425874901403455
0.01352650588789953
0.1284074403322742
0.1179502356693286