/*--------------------------------*- C++ -*----------------------------------*\
| =========                 |                                                 |
| \\      /  F ield         | OpenFOAM: The Open Source CFD Toolbox           |
|  \\    /   O peration     | Version:  v1812                                 |
|   \\  /    A nd           | Web:      www.OpenFOAM.com                      |
|    \\/     M anipulation  |                                                 |
\*---------------------------------------------------------------------------*/
FoamFile
{
    version     2.0;
    format      ascii;
    class       volVectorField;
    location    "1732";
    object      U;
}
// * * * * * * * * * * * * * * * * * * * * * * * * * * * * * * * * * * * * * //

dimensions      [0 1 -1 0 0 0 0];


internalField   nonuniform List<vector> 
44936
(
(1.00893547049228 -0.008333069056214238 -3.674285045590919e-18)
(1.008707667511507 -0.00827834496123213 -3.341186150310549e-18)
(1.003352775724397 -0.002634280404175066 4.768296920055834e-20)
(1.003341478209796 -0.002639061791727489 -6.143305778337655e-19)
(1.003376849410278 -0.002655816645200664 -1.731538043635656e-18)
(1.005040613526523 -0.003816747392837056 1.021134111288567e-18)
(1.005046519095319 -0.00384210062822264 -9.951643597344217e-19)
(1.003715677793927 -0.002645891965635013 -1.37205269175802e-18)
(1.003800480933818 -0.002651245602245807 -1.413044190725003e-18)
(1.003795201272937 -0.002642291914077521 7.448596876906984e-19)
(1.00370748073223 -0.002637508457392412 -1.292440028854777e-18)
(1.009321730259789 -0.005718053847251028 5.96533194767912e-19)
(1.009244154393531 -0.00572280641083188 4.140590001945787e-19)
(1.009403424854919 -0.005742660385348717 7.531215321526925e-19)
(-0.2534563452674305 0.1027874550059168 1.150633747950695e-17)
(-0.2590723749339214 0.1063163086059147 1.217137839885921e-17)
(-0.2521373086735149 0.1069307565619239 1.359529629109121e-17)
(-0.2258743235979317 0.1001112990127947 1.268188518986557e-17)
(-0.2369648049888152 0.09967582418780002 1.173679126597059e-17)
(-0.274561514580848 -0.02001694270876057 -1.729524524111742e-18)
(-0.2800324290553743 0.0005481880505716808 7.320723932935679e-18)
(-0.2870463636377492 -0.01403452388162921 -5.263897001332936e-18)
(1.021615132053958 -0.1650602470505964 -4.443210942959305e-17)
(1.02309514813814 -0.1650880380492768 -4.502729518226344e-17)
(1.046653792967141 -0.1539351273052109 -4.351020013605142e-17)
(1.044641948165637 -0.155823848872557 -4.429522009057379e-17)
(0.958856335966973 -0.1963987073077915 -4.815736036682107e-17)
(1.105590646606144 -0.1126587020545392 -4.202704032425461e-17)
(1.104127109545143 -0.1176915929437169 -4.107786056516246e-17)
(1.030448506607537 -0.1598992103959699 -4.425381717346734e-17)
(1.032589960108394 -0.1588603981714845 -4.422043256880785e-17)
(1.092085699648552 -0.1224431231706292 -4.239912519778338e-17)
(1.088910097433314 -0.1171867322356704 -4.059665728180531e-17)
(1.090730199643497 -0.1282912093665315 -4.272916646968186e-17)
(1.08716170670281 -0.1316080834789848 -4.287177308273271e-17)
(1.083130065962263 -0.1296619517949605 -4.234996710190624e-17)
(1.086244165192108 -0.1259151984504049 -4.23502857969916e-17)
(-0.2586738964357939 0.1234756479182358 -1.089291616933725e-17)
(-0.3029756944591742 -0.1447213172471214 -3.310796158507284e-17)
(-0.1671416949343497 0.07513786820090086 -2.891554067942457e-18)
(-0.1943628891682616 0.07893011147242007 4.776903423506099e-18)
(-0.2221442331019718 0.09040138893745184 7.794256219444197e-18)
(-0.2112774773270455 0.09088605724122205 8.369171981724962e-18)
(-0.2279126688985745 0.08662587382075498 -7.366978424454372e-18)
(-0.2146700304358248 0.1157922424178139 6.89781359526574e-18)
(-0.2070832487528811 0.1109185338734151 -1.892208258145943e-18)
(-0.2523806723282562 0.1227562430797066 -1.769003152297091e-17)
(1.16577247531961 0.2938273368594853 -1.364482768190238e-17)
(1.200937584636808 0.3016368068926227 -2.016760316775155e-17)
(1.14343511497406 0.318197654825313 -1.359592599860972e-17)
(1.013067567547704 -0.167632410177763 -4.466296023031406e-17)
(1.011419089852763 -0.1667116830114783 -4.400930470971212e-17)
(1.009178806694551 -0.165813888397519 -4.341604995691239e-17)
(0.8742785197928614 -0.2044140131135579 -5.226631246903268e-17)
(0.8812676770141273 -0.2010136637026089 -5.307282109173232e-17)
(0.8639645273454941 -0.2035126184795452 -5.040681689026447e-17)
(0.8571078346161571 -0.1974899355259954 -4.987363616049305e-17)
(0.8660901993570473 -0.1889880514548865 -5.335338576823481e-17)
(0.8723327098090868 -0.1948624531563895 -5.073039268576551e-17)
(-0.2167710774710473 -0.04388486903210884 5.122043563886952e-18)
(-0.2348646895611458 -0.01558341504741971 -1.470747379868462e-19)
(-0.248478220473342 0.007614579708715184 -2.223428392491798e-18)
(0.6245379754877987 -0.01255897218595226 -6.418321691004162e-17)
(0.6101239679108307 -0.04544832634548324 -5.28545952802015e-17)
(0.5607127955472823 -0.05109497312165518 -4.99102077536737e-17)
(0.5686115463227666 -0.02626544828846692 -4.479640950611551e-17)
(0.8099425114594774 -0.1714127894903029 -3.245964382246296e-17)
(0.7932986190029062 -0.1842418049297925 -4.839423641398948e-17)
(1.192858791502374 0.1172195950098741 -2.12595814726624e-17)
(1.121768670117256 0.09336267139023417 -2.372515271364091e-17)
(0.7424255006375932 -0.1630249666342987 -3.347467363054873e-17)
(0.7308504547538404 -0.1524925583257305 -3.721312289391239e-17)
(-0.07541967029560132 0.04375431016591145 -6.952028729898682e-19)
(-0.07166303249906948 0.02049561733870244 1.913479591533178e-17)
(-0.1753922453940859 0.07732004486501254 -9.265853485728867e-18)
(-0.227247898823961 0.09033191217041033 -1.097366974824977e-17)
(-0.224891509902631 0.07706915309194555 -1.137203035056228e-17)
(-0.1641505160159416 0.05783774200187681 -7.344235227723887e-18)
(0.8832762215469341 0.2006429145536054 -3.996985513004116e-18)
(0.8681265256641613 0.2283242446821603 -1.462555470675696e-17)
(0.04298041029161384 -0.1796113172945205 -7.180575129790787e-18)
(-0.06549684099197031 -0.1563797627986872 -5.820804349985447e-18)
(0.9566098260848445 -0.1711423833462031 -4.273298596715409e-17)
(0.9538023541535205 -0.1611589689421947 -3.439742483593881e-17)
(0.9490237143312665 -0.1545766266140684 -3.116986156769026e-17)
(0.954379628537087 -0.1503756914052458 -2.816644684741288e-17)
(1.04148286613311 -0.00636595116728065 -1.986368989880116e-17)
(1.046145941756665 -0.008856161474619189 -2.000955940820796e-17)
(1.052673595186601 -0.009563572627198567 -2.320769077112281e-17)
(0.9998343502852867 0.0007390798674620943 1.900639552823338e-19)
(0.9998564167684217 0.0008069480137956929 2.51404536050049e-19)
(0.9879714554187363 0.03132336097934452 -1.042193887736883e-17)
(0.9900695417020123 0.02998866515933524 -1.063657241988083e-17)
(0.9873636641533832 0.02591087951461178 -1.181088396795322e-17)
(0.9856349388308544 0.02755164090708575 -1.135979842766991e-17)
(0.9996864816579526 0.00107179418405245 -4.376282816480503e-19)
(0.999676570073104 0.001186156879904366 2.086008407314974e-18)
(0.9719199422525155 0.01062249469706671 5.002629807049074e-18)
(0.976130829887636 0.005804364563049697 -1.570266656919596e-17)
(0.9743044654477673 0.009062952329950096 5.390851832629123e-18)
(0.9919896834841053 0.04109621293835651 -9.011826205217565e-18)
(0.9861595480182366 0.03997723016025626 -7.022637075436361e-18)
(0.9890405181463474 0.04071609118304046 -7.259463609265807e-18)
(0.978437573964503 -0.01195534549878623 -1.010376349280725e-17)
(0.981968731173345 -0.01169766153039447 4.620553409578035e-18)
(0.9812801382136233 -0.009008438216750412 4.668111525110069e-18)
(0.9734623952851956 0.02752913347114902 -1.72836443270946e-17)
(0.975186272106753 0.02708620212370974 -1.417185672101021e-17)
(0.9996296810497775 0.0004295074672112205 -2.237332527360062e-18)
(0.9996574989592673 0.0003867294191100087 -2.262629982106121e-18)
(0.9648803471013204 -0.006030992529277915 2.74260404671682e-18)
(0.9656355649213929 -0.005412700938820248 2.702447052981562e-18)
(0.984019737394657 0.05254320901445036 -8.083049458316535e-18)
(0.985558125025824 0.05571876814247214 -5.076694729328751e-18)
(0.9853301045093361 0.05399036020463406 -5.989842167268668e-18)
(0.9846522219625554 -0.02254007432700103 3.773616702787081e-19)
(0.9838446796142579 -0.02327971558519221 4.032082245153879e-18)
(0.987122857293134 -0.02232331659947331 -5.267773021115318e-18)
(0.9877260148013564 -0.02358088284303155 -1.18544059259604e-18)
(0.9859254897524321 -0.0233996238969277 7.120139248088183e-19)
(1.010974393101062 0.05265836550641841 -3.495090469282203e-18)
(1.011177027315264 0.05422164516593701 -3.642179175330034e-18)
(0.9902309323921112 -0.02389750161043312 2.922697392649404e-18)
(1.02579787670656 0.04410608458465667 -5.089846171332668e-19)
(1.027574436811688 0.044326891194976 -1.755281809311136e-19)
(1.028410424963341 0.04809354913181207 -2.226735321706486e-18)
(1.029169840671714 0.04717988141025601 6.811928127099977e-19)
(1.027588314183281 0.04667625392574186 -1.961976202470503e-18)
(0.9671404866038883 -0.013631478427844 1.432781553013443e-19)
(0.9692052285450363 0.04045066481271018 -1.101117650206265e-17)
(0.9658732716298368 0.04036587392470703 -1.198948038926939e-17)
(0.9674016378902872 0.0398201928868226 -1.160241341235503e-17)
(1.003480670794139 -0.01356358409897299 8.573895655220698e-18)
(1.003369159503769 -0.01277248447757286 8.304615852244104e-18)
(1.002079249720302 -0.01807344261555804 -8.31045996812079e-19)
(1.001473941195747 -0.01818324526761204 -3.795979327164801e-19)
(1.001388433369544 -0.01677667764567571 2.819556817497738e-18)
(1.001996955662538 -0.01676969058278329 3.664849078629516e-18)
(1.012141662473979 -0.001805337674510403 -1.301377353094803e-19)
(1.012165389346243 -0.001799196769576041 7.583801919848893e-19)
(1.012169742517641 -0.001801518529113595 2.252110924527454e-18)
(0.9705066593024925 -0.02225218754824129 -2.481514535927882e-18)
(0.9718535292708166 -0.02240428605806388 -1.071537752120289e-18)
(0.9721802474558114 -0.02393407517043439 9.381860474292275e-20)
(0.9707314188888403 -0.02377681005803631 -2.191171893891302e-20)
(0.9963560175556325 -0.02749000629527544 -2.345336926320873e-18)
(0.9964631594295535 -0.0284046083742729 -3.584551022688675e-18)
(0.9955673978513305 -0.02868607900604517 -3.28926602898867e-18)
(0.995397243474905 -0.02758689262259922 -2.843956291750915e-18)
(1.042719418007358 0.0214861848489337 1.938016697293743e-18)
(1.041081192192163 0.02158872216752991 1.908740436299553e-18)
(1.004197217907605 -0.0005113897273660483 -3.133890857973092e-18)
(1.003879729096398 -0.0005077579616942823 -3.593223291403791e-18)
(1.003140648282915 0.002243952454880676 5.312436148582094e-19)
(1.011985027132663 -0.001941641559438963 1.459661288233724e-18)
(1.011987573775285 -0.001931894531855778 1.35153655405191e-18)
(1.001084133752923 0.001203022560182505 -1.54906614552997e-18)
(1.001427872507646 0.001591651986728048 -1.417409538489666e-18)
(1.011982952903141 -0.001862994869320061 -5.162504328309124e-19)
(1.01198800387714 -0.001861912292770511 1.610330131498423e-19)
(0.9679508553487191 -0.02765837511691193 2.6550392652048e-18)
(0.9678885838080754 -0.02892252169937124 2.529177513991476e-18)
(1.04652774852947 0.01111843615467751 -3.608420500892501e-18)
(1.044729846450452 0.01202533282424171 1.645891096288126e-18)
(1.042855946689712 0.009334311277412584 -5.935668489314839e-18)
(1.007271028031766 -0.009298596450296669 2.118905805359209e-18)
(1.007078883223212 -0.009761473600514013 8.358033332359307e-19)
(1.006249817063755 -0.01402649430655113 -2.024387875727681e-19)
(1.006178536214165 -0.01424175598948594 -1.699654745468778e-18)
(1.05110861435504 0.01632234368151313 9.560336802891873e-18)
(1.053542490941911 0.0152693882799973 3.788550931581595e-18)
(1.051252329938025 0.01440752910527815 8.812269246734569e-18)
(1.011853358111673 -0.002140336944753723 3.933862984168624e-19)
(1.01185461904903 -0.002126019362863072 -4.944503528293566e-19)
(1.011862471899074 -0.00215518969701931 3.575150387276683e-19)
(1.011895826823934 -0.002150033862442652 6.511567471715836e-19)
(1.011923917394266 -0.002105547364080124 4.454739854592371e-19)
(1.011885818201282 -0.002115609705771637 1.723985506728229e-19)
(1.011809218291886 -0.002256076464394774 -6.381187479734171e-19)
(1.011802939438339 -0.002277465168339487 4.956851892206915e-19)
(1.006318229841733 -0.01437808890100414 -6.179994082206404e-19)
(1.006250468416386 -0.01439510508428626 -1.659782579604539e-18)
(1.045204740224971 -0.008942067804077133 -3.706672898080432e-18)
(1.045330613479494 -0.007051154898244007 -1.081415032451391e-17)
(1.041372135373182 -0.008260445929870453 1.46562604832975e-18)
(1.011827893891145 -0.002092674999077067 -1.784851716248624e-19)
(1.011816029019734 -0.002108308421305491 -3.429468583205439e-18)
(1.01184797467236 -0.00209325069721455 -2.429972462851403e-18)
(1.011803381513033 -0.002141756925179225 1.514776279381471e-18)
(1.011818241121546 -0.002131862541599781 2.109680600960655e-18)
(1.011825129875996 -0.002113441800618855 -3.882727381194878e-19)
(1.053822188055319 0.0009676681760779112 8.638385857953223e-18)
(1.055841697074509 0.01232450095176648 1.069671568496227e-18)
(1.054829911273961 0.01306816851708947 3.326245240406032e-18)
(1.006086840633766 -0.01671684760762783 1.64404328348328e-18)
(1.00598350990171 -0.01663982109465475 2.17811116955382e-18)
(1.008657833655399 -0.007908812188115831 -9.631384585035317e-19)
(1.00856267142456 -0.008213011827734006 1.671392533632835e-18)
(1.008254906712962 -0.009312794105239497 -5.843900894220157e-19)
(1.008144057419906 -0.009438277524909066 -8.766948448644884e-19)
(1.011716473286612 -0.002328201231734358 4.673996718357618e-19)
(1.011724948513753 -0.002306450252251204 -6.805774904852992e-19)
(1.011750493456007 -0.002303413769212626 1.45321884512067e-19)
(1.01184010521897 -0.001949000542892682 -9.904091952270304e-19)
(1.011832158689403 -0.001949201887557522 1.028656965414398e-18)
(1.011602073742851 -0.002641944295125912 1.261949062839512e-18)
(1.011591449838261 -0.002671549915547448 -4.861635023669049e-20)
(1.011666764568012 -0.001916175617762965 -3.444423629407817e-19)
(1.011703965471899 -0.001926838218663059 1.240958702520275e-19)
(1.011757313614066 -0.00192559873994966 4.358108632276655e-19)
(1.011784519235822 -0.002053948934558882 7.326956265658234e-19)
(1.011795563614529 -0.002051886582222186 2.550672679531299e-19)
(1.025448894864424 -0.01440129725535153 1.220491053434384e-17)
(1.028546763675908 -0.01290721862944732 5.244679267882564e-18)
(1.027060416613369 -0.01370436971088436 1.623403464031435e-17)
(1.011352102611538 -0.003137047168523002 -1.979180073573773e-18)
(1.011330948722879 -0.003173419677900795 -2.527734095567831e-18)
(1.011573403617699 -0.002588352906201216 -8.884779955884817e-19)
(1.011570555088825 -0.002600418785411093 -2.384522548788251e-18)
(1.009977223561549 -0.006529614078739069 -1.185847868099671e-18)
(1.009960162687808 -0.006425297866620984 -3.295615596535104e-19)
(1.010027594831258 -0.006359580397722471 6.32233601337329e-19)
(1.010028181775752 -0.006484749262749299 -7.111624444210128e-20)
(1.010091872719663 -0.006165655752034729 -4.30201469356709e-19)
(1.010102485368343 -0.006013908232967408 -1.441235129181143e-18)
(1.011570610903679 -0.002580840839699524 4.18420990818547e-19)
(1.01157259892765 -0.002582655868853493 -1.995847524564639e-19)
(1.009449754615665 -0.008621885055124894 -5.954979631543073e-19)
(1.009401749468354 -0.008603409975053974 6.604552691615243e-20)
(1.010445875856736 -0.0001847396809271659 -3.43632614855237e-18)
(1.010668681137643 -0.0001550713396799594 -2.27963787957031e-18)
(1.010075779022589 -0.006639053308665856 -5.177674773398425e-19)
(1.010123096497677 -0.006660133582783813 2.677822440319703e-18)
(1.012343250304112 -0.002930147073346299 -9.670590781654101e-19)
(1.012169218557633 -0.002983681759790146 2.085931691678812e-18)
(1.010152211423328 -0.006239131083748375 5.826230080496549e-19)
(1.010078837006172 -0.006352039082702938 -3.792007572525792e-20)
(1.010108049526217 -0.006297006657559305 3.915641425738788e-19)
(1.028440804978058 -0.02738214771506827 -1.189341305545422e-19)
(1.028940154904848 -0.02728773537116582 1.149618072216915e-18)
(1.011240628319182 -0.003379195276251843 -1.317701090418843e-18)
(1.011253326947114 -0.00333707083557869 -1.055467604903257e-18)
(1.011059845492716 -0.003736789104012251 -2.761210012630409e-19)
(1.01102993874629 -0.003778579284988791 -4.221245223621389e-19)
(1.021634487588213 -0.023471671412495 2.514813893223127e-19)
(1.021789944826785 -0.02411382818662856 3.467863246036803e-18)
(1.022168538305571 -0.02326579112195364 -6.957282092265624e-19)
(1.022764473539632 -0.02361359848259863 -3.807386208700518e-19)
(1.022903061613218 -0.024235499663941 -1.081233802538633e-18)
(1.022282201101797 -0.02384048564415834 -2.353840939509177e-19)
(1.010669465901713 -0.004927414378178886 4.926737599069601e-19)
(1.010676747118193 -0.004861392166686634 1.411634306368665e-18)
(1.022991602617801 -0.02563052119281308 -1.008149489618734e-18)
(1.023512864561521 -0.02567305335529005 1.279902973360981e-19)
(1.023125384672779 -0.02496598941750148 2.556758134594119e-18)
(1.013621085303932 -0.01598980513770887 6.219438775773924e-18)
(1.013418498991832 -0.01655099214792917 3.211395260358209e-18)
(1.012910282974279 -0.01640004247864641 3.57492142932784e-18)
(1.012621838251161 -0.01570318414522577 4.803250691570858e-18)
(1.013099398797473 -0.01580304325957581 6.28489813943892e-18)
(1.011556294948167 -0.002606881663698198 -3.534885428378254e-19)
(1.011554418905124 -0.002609158456964367 -1.378937280419959e-19)
(1.01155311341621 -0.002595909282783901 -1.074595513841337e-18)
(1.010810801137897 -0.00462313273433585 -3.886391669995574e-19)
(1.010826505019107 -0.004551694862058559 -6.446272611627192e-19)
(1.013643171296918 -0.001676376581749705 1.774023916444266e-20)
(1.013723953692505 -0.001652010148470469 -9.459971098863547e-20)
(1.013656176939586 -0.001562227709487875 -2.312801758875265e-18)
(1.01372161569156 -0.001434584672995179 2.783725473361181e-19)
(1.013882770905708 -0.001325906170217285 -8.16007120606689e-19)
(1.013809433952758 -0.00148266923080521 -8.770963454506492e-19)
(1.004600775783298 -0.001373726852780534 4.446219823681162e-18)
(1.004701152749551 -0.001250925085209971 -1.506217382480194e-18)
(1.010207220316014 -0.01504642430416284 2.783396105559545e-18)
(1.010156071689746 -0.01463116296212123 2.258266597920388e-18)
(1.010435547750079 -0.01486033896480463 1.662108420808729e-18)
(1.010588201024127 -0.01525905585845115 1.84921607546584e-18)
(1.010415938020178 -0.0151834021488952 2.504937394702461e-18)
(1.010779534995024 -0.01577805409227019 6.993723897246878e-19)
(1.010675178592255 -0.01552700289164032 1.634698112702986e-18)
(1.009964929312942 -0.01464203046244932 2.036857324993139e-18)
(1.009886915563935 -0.01441910429876647 2.169819659073072e-18)
(1.0087323530649 -0.01298995205297518 -3.904655942918411e-19)
(1.008620027272041 -0.01273729994184955 -7.796298494546739e-19)
(1.014345006302193 -0.0003426130021993144 -3.799305403135849e-19)
(1.014249867705507 -0.0003532529027618155 -2.874349028035397e-19)
(1.011365399132058 -0.0032304799073224 -5.328318856907348e-19)
(1.01133628580488 -0.003234191757626072 -2.878201246988421e-20)
(1.007397083640735 -0.01037255039402734 1.497240000513042e-18)
(1.007337763398189 -0.01065542866795348 -8.027144015488147e-19)
(1.007656137549851 -0.0102100889097516 3.190887875583035e-18)
(1.007923204689643 -0.01046553953759229 1.540003203848642e-18)
(1.007828374449688 -0.01077831244584004 1.334596903624382e-18)
(1.007627617205415 -0.01053120032571933 3.157998157615003e-18)
(1.007503997911298 -0.01129375899719443 1.489766976019475e-18)
(1.00761716052799 -0.01138973622590332 6.823028039282404e-19)
(1.007682452567802 -0.01111056691147396 2.804953695903543e-18)
(1.018435027871531 -0.02537422772898294 3.019182505871285e-18)
(1.018810561344803 -0.02575694937313659 2.332139182209348e-18)
(1.019096278971124 -0.02609634683709067 1.99727160720256e-18)
(1.011047603748348 -0.01699211386058784 -2.782807779191374e-18)
(0.8526340922219167 -0.001601495425207639 3.130442196682816e-19)
(1.011901651903353 -0.01757237853546204 2.144038097515979e-19)
(1.011233897821308 -0.004322424830535305 -9.606432250787456e-20)
(1.011210458014171 -0.004320561871032533 -1.991898032033698e-18)
(1.013401804805469 -0.0202373306264329 8.732352176461862e-19)
(1.013523582584786 -0.02067149349201578 2.526098961610851e-18)
(1.013468324977791 -0.02082911130007564 2.591890976458187e-18)
(1.013293056316184 -0.02054787053079975 2.440947025691105e-18)
(1.013333890760923 -0.02039473155346103 1.739674144181696e-18)
(1.01414518683428 -0.02258042773433876 3.042678134935304e-18)
(1.014252476882339 -0.02282289886823269 -4.350697770907676e-19)
(1.014396506660899 -0.02313627658891575 -5.273892002967763e-19)
(1.005434081566704 -0.007301710181969705 -9.269344206796321e-19)
(1.005453485220477 -0.007344803586202138 -2.265056880251859e-19)
(1.013356148825311 -0.0209358168428773 -3.340992449450562e-18)
(1.013400292629126 -0.02080002559909533 -1.740970287697172e-18)
(1.004572260524969 -0.00506719447007941 -6.462657182375787e-19)
(1.004524993158193 -0.004889663572422536 4.305165525834741e-19)
(1.004706555231711 -0.005495899374771959 -3.025998077420126e-19)
(1.004780050659809 -0.005678465921550066 1.479808501709447e-21)
(1.004749876095954 -0.005576211773041725 -1.364010041978443e-18)
(1.003033954462116 -0.002214192985424103 1.668266379778893e-19)
(1.002972404249203 -0.002196648513244318 -6.693611579120191e-19)
(1.00299474754061 -0.002199386387214476 -3.002677008981852e-19)
(1.000258916699694 -0.004217366545795014 -2.269751819030514e-18)
(1.005492933436113 -0.006872062107766982 1.430163203794259e-18)
(1.005643465748216 -0.006874734675169657 8.532039375762907e-19)
(1.005449595083441 -0.006927354927006159 -5.2168721898465e-19)
(1.005487273282324 -0.006983501383287843 -9.900189699727572e-19)
(1.005631109810012 -0.007027438335182641 1.020283534617516e-18)
(1.00557604123508 -0.006964801916695605 2.014900977641867e-18)
(0.9075570882288541 -0.001412524565899719 1.544835278935814e-19)
(0.8883266151782993 -0.001400064118028673 -1.130749091572229e-18)
(0.910887242438436 -0.00158397939775409 -1.695839629838547e-18)
(1.003974690295057 -0.003796894812501476 -1.658364079485815e-18)
(1.004019534070996 -0.00393154360355238 1.172066987421223e-18)
(1.005721177896224 -0.006936615983668445 9.608828852806022e-19)
(1.005885386711284 -0.006997488594602402 1.077359954058252e-18)
(1.002913114528459 -0.002238466894940166 -4.674507712326176e-19)
(1.002931459435588 -0.002233377131753478 5.054027469576523e-19)
(1.003829622757228 -0.003603129407319131 9.34098842136574e-19)
(1.003784722042359 -0.003495133427483016 7.729138719700179e-19)
(1.004991614255351 -0.00548143282402173 4.310744155360019e-19)
(1.004869123469497 -0.005455553979314601 9.069839843233942e-19)
(1.004210795607987 -0.004238675894967489 -3.152970089648346e-18)
(1.003324840104256 -0.002315920380171184 -4.300732508490108e-19)
(1.00334630818875 -0.002311246422795146 6.058722791873322e-19)
(1.003287027917577 -0.002300306594224938 -3.691850905988733e-19)
(1.003266398020558 -0.002303729704956664 -1.81559284233902e-18)
(1.004050754477895 -0.0038272817609712 3.347006089353001e-20)
(1.004045938582923 -0.003852560508799017 4.241366011625588e-19)
(1.004026301503197 -0.003848899574209716 3.31909227865529e-19)
(1.007708106904025 -0.00650264310056935 2.117237041120436e-19)
(1.007443500071557 -0.006483712824860131 -9.703849065123921e-19)
(1.003403769312694 -0.002380353622592277 -1.114735571600859e-18)
(1.006245878197912 -0.005531844905002067 5.023402631366169e-19)
(1.005951459384609 -0.005518582613257526 -3.79517084515276e-19)
(1.004201231166197 -0.003794636263661092 -4.459881865847141e-19)
(1.004259275903991 -0.003780354530591224 6.130315452664771e-19)
(1.003100063362333 -0.002486488548920061 1.238591299874699e-19)
(1.00349769752907 -0.002461666186309178 2.041747167405699e-18)
(1.003454028191171 -0.002447702904150439 4.62506973805688e-19)
(1.003494353629887 -0.002467699135473392 6.495180184625738e-19)
(1.00352912879136 -0.002488730732359272 -7.483387694295427e-19)
(1.00480127137214 -0.003848928267727734 1.453346407801181e-19)
(1.004620502749596 -0.003834952622738017 -2.20567879015974e-19)
(1.00442465732985 -0.003284078545658275 1.710753350913197e-18)
(1.004348107738534 -0.003264171070027237 1.459770318566332e-18)
(1.004368826589382 -0.003297551400953846 -1.146048888292281e-19)
(1.003626215655769 -0.002801346650577076 -3.852907284836487e-19)
(1.003579892117234 -0.002778682442217222 -3.472062575992015e-20)
(1.003739361505487 -0.002851075200657919 -1.125652111389618e-18)
(1.003748265728392 -0.002845385350325128 -4.105564631330959e-19)
(1.003671039178293 -0.00283299011062017 9.708373626844568e-19)
(1.003698928687369 -0.002788072162208799 5.093976365562089e-19)
(1.003665577679322 -0.002788648082114166 -1.281915850065448e-18)
(1.004368112520529 -0.003067603302804335 -2.585537003008942e-19)
(1.004359211825888 -0.003077654261138436 7.948859633294608e-19)
(1.009040063602115 -0.005164176498541811 -7.056715046981565e-19)
(1.009171543197667 -0.005179829468560504 6.909400079556614e-20)
(1.008884325392301 -0.004728798754349653 -1.237232854814094e-18)
(1.008732554484397 -0.004770878419855379 -8.89731867871793e-19)
(1.00896632485714 -0.004754073492935206 -4.878518749144604e-19)
(1.005765639849861 -0.00812451969665132 -6.857946622368945e-19)
(1.005773132711454 -0.008206763346550914 5.234340628270804e-19)
(1.005765035740996 -0.00816358222653449 -9.966337423613189e-19)
(0.9560888748831395 -0.1965250036748578 -4.853571644201834e-17)
(0.9532927692775454 -0.1971584113678289 -4.80705013035396e-17)
(0.9889380786548011 0.04295404905554991 -6.640510874494512e-18)
(0.9885351180020145 0.04520402705974665 -6.323385241535504e-18)
(-0.240203445477488 0.09405956460220892 3.659124067935096e-19)
(-0.2478662483066198 0.09813693307813409 4.150779075277981e-18)
(1.203009503055108 0.05655016235565061 1.199195533268198e-17)
(1.209202271643731 0.06223904444014507 1.361942764020239e-17)
(0.9912502554834063 -0.01961644908135434 -1.038261964862636e-18)
(0.9910235220383592 -0.01766082792542248 3.35160126475516e-18)
(0.9902219042630603 -0.01676325406541261 8.585493727870334e-18)
(1.017789430776436 0.03608926346106048 -1.768284923592446e-19)
(1.01816452839022 0.03252881351246537 -4.418242333103801e-18)
(1.020041306289914 0.02769531625322601 3.088160564421883e-18)
(1.014363181486486 0.04185214926143648 2.974276153423883e-19)
(1.012846617254595 0.0405078640323769 4.877355447259255e-19)
(0.9791199089914387 0.04650864516407767 -8.401436139528525e-18)
(0.9773954551845481 0.04742799619804546 -8.440905759734036e-18)
(0.9762566310355644 0.047890434028947 -9.605956041165623e-18)
(0.9714237650636642 0.0473518795333624 -5.116825180412737e-18)
(0.9707116106362043 0.04856862560410288 -5.471752014947037e-18)
(1.057600978153306 0.009550331056965315 1.277874256191104e-18)
(1.059089830932981 0.009512511598644238 5.043085809244974e-19)
(1.054188443947503 0.006033137634388422 5.677663054681978e-18)
(1.052749246151783 0.002477613369899549 1.102317629151062e-17)
(1.052895117153847 0.003559794322236953 1.202246974120813e-17)
(1.011758157329158 -0.002217286253977592 -2.311334913065405e-18)
(1.011747441791487 -0.002225790146937593 -1.167294651130651e-18)
(1.009274362144436 -0.007085362547118362 4.957350590362789e-19)
(1.009424455100643 -0.00695293008693147 1.795595758279398e-18)
(1.009177141468473 -0.006843604785207368 1.41511834982139e-18)
(1.00723774066465 -0.01094696645932202 -1.235831070228383e-18)
(1.007109380913957 -0.01089695965268613 1.7782734989706e-19)
(1.013701416451682 -0.0215475905819486 -8.245853909787567e-19)
(0.9599375612835108 -0.00357767833775399 -8.614145396605055e-20)
(0.9794039393883454 -0.002957415017830566 -8.078103033568955e-20)
(0.9700735762325039 -0.00350554979253807 -7.391597121560449e-19)
(1.003190714012743 -0.00224118212748698 1.20693765092839e-18)
(1.003220474633749 -0.00224185136189591 -4.056551994908856e-19)
(1.003886042635925 -0.003286851574116288 1.374995070551783e-19)
(1.003928215787892 -0.003277015683721032 1.567607032953043e-19)
(1.004868877702407 -0.005829295145633217 4.436654277113465e-20)
(1.004879518433601 -0.005804197134209125 -4.757755765499473e-19)
(1.004893846123483 -0.005737675847683875 1.257516514964684e-18)
(1.010746512768341 -0.005146652780792169 -1.171974412304099e-19)
(1.010783516496348 -0.005145815607941407 -6.06182692442355e-21)
(1.010732077215813 -0.005068165599928436 -3.790727604384599e-19)
(1.010746094725283 -0.005092273566373909 1.671479495340849e-19)
(-0.2611528201682861 0.1154007196546004 4.459873656853866e-18)
(-0.2722763726893635 0.1178456313678527 9.870041868010383e-18)
(-0.2563268429219798 0.1147116063618702 1.892339017137968e-17)
(-0.2405798711544188 0.1113184433627268 4.566370533730666e-18)
(0.9745383269986357 0.0450393124893679 -8.130841758622244e-18)
(0.9758609086489188 0.04575737024552622 -1.116058210269948e-17)
(1.0289283791659 -0.02218779229931413 -3.755846114182868e-18)
(1.028186745711287 -0.02131610587867927 -3.308505910901535e-18)
(1.028794675047069 -0.0236369897495472 -9.878092959872502e-19)
(1.028118283729397 -0.02268905413111724 -3.113204174527257e-18)
(1.258975880024675 0.31066703503134 -1.750686896438817e-17)
(1.269048397151931 0.2765383066904862 -1.777346326470323e-17)
(1.255962101762196 0.3448985573927389 -1.104649468567899e-17)
(1.278971396406753 0.3714488782011673 -1.627911398611524e-17)
(1.273925287240377 0.331668955473647 -1.450297139180881e-17)
(0.9797209209858598 -0.02897555644697047 -1.172131997979001e-18)
(0.9812348086732738 -0.02833736713996204 -2.032024438517873e-18)
(1.012046191722243 -0.001820303912082042 -1.194558817542117e-18)
(1.01206707323144 -0.001815065912000168 -1.663021091810232e-18)
(1.010539243244379 -0.007541598495700554 -6.292264773079633e-19)
(1.010525699529238 -0.007500836678699475 -9.128317050990878e-19)
(0.9826212880297757 -0.02727207584352037 -5.882471254571524e-18)