/*--------------------------------*- C++ -*----------------------------------*\
| =========                 |                                                 |
| \\      /  F ield         | OpenFOAM: The Open Source CFD Toolbox           |
|  \\    /   O peration     | Version:  v1812                                 |
|   \\  /    A nd           | Web:      www.OpenFOAM.com                      |
|    \\/     M anipulation  |                                                 |
\*---------------------------------------------------------------------------*/
FoamFile
{
    version     2.0;
    format      ascii;
    class       volVectorField;
    location    "1732";
    object      wallShearStress;
}
// * * * * * * * * * * * * * * * * * * * * * * * * * * * * * * * * * * * * * //

dimensions      [0 2 -2 0 0 0 0];


internalField   uniform (0 0 0);

boundaryField
{
    inlet
    {
        type            calculated;
        value           uniform (0 0 0);
    }
    outlet
    {
        type            calculated;
        value           uniform (0 0 0);
    }
    top
    {
        type            symmetry;
    }
    bottom
    {
        type            symmetry;
    }
    frontAndBack
    {
        type            symmetry;
    }
    airfoil
    {
        type            calculated;
        value           nonuniform List<vector> 
299
(
(-0.004745902059444185 0.0003124313960115972 1.466122436875684e-19)
(-0.004364121376228502 0.0002295056799157113 1.569797874792278e-19)
(-0.004174443950123398 0.0003492043764535647 1.526643857295966e-19)
(-0.004097129762543821 0.0004158473919999811 1.519958767020914e-19)
(-0.004048454164935123 0.0004526826480210761 1.517122615979262e-19)
(-0.004013085495618425 0.0004742112716014124 1.51462649131956e-19)
(-0.003986319432112837 0.0004879844503384906 1.429533433920565e-19)
(-0.003962630045551966 0.0004973137933861814 1.427660025928041e-19)
(-0.003939689444740862 0.0005053139733377094 1.397146063454491e-19)
(-0.003960466835998142 0.0005177166070589513 1.528208662252412e-19)
(-0.003668043251531679 0.0004499793580458666 1.410016025155975e-19)
(-0.003587149541160177 0.000456525685392207 1.389091146072681e-19)
(-0.003551245736380414 0.0004714167393768668 1.398429323490891e-19)
(-0.003536964735300273 0.0004832620360678067 1.340108699902644e-19)
(-0.003524108205824315 0.000489214898086185 1.325074201920995e-19)
(-0.003513563178451777 0.0004937084929504133 1.342843957691158e-19)
(-0.003504567944311953 0.0004974512046230783 1.348544076147561e-19)
(-0.003496730047707648 0.0005009222195574583 1.35695327049457e-19)
(-0.003489738730556311 0.0005041316370157092 1.380844572024155e-19)
(-0.003483405039126504 0.0005072615337524299 1.497938546456746e-19)
(-0.003477690236680527 0.0005105723817660506 1.499518698689594e-19)
(-0.003472532660204668 0.0005138970588821764 1.510251485962366e-19)
(-0.003467804618212097 0.0005170583625372443 1.444119740011828e-19)
(-0.003463108965526343 0.0005197741696307065 1.504931708890652e-19)
(-0.003458270689419046 0.0005223461293092829 1.481913077920235e-19)
(-0.003453931394281919 0.0005251008193845907 1.514899324209412e-19)
(-0.003450507386564778 0.0005279857253570467 1.462603395423284e-19)
(-0.003447002688309445 0.0005308971368877836 1.467590708344621e-19)
(-0.003443090970293387 0.0005336410311468068 1.472870964271369e-19)
(-0.003438661359437468 0.0005357282529672532 1.4784228627048e-19)
(-0.003432850936010077 0.0005374678307799634 1.483032509072591e-19)
(-0.003426788772871123 0.0005400235958425267 1.458783368601574e-19)
(-0.003423172871116288 0.000542741909068892 1.466153806481248e-19)
(-0.003422170118727673 0.0005456907964327565 1.43183072067888e-19)
(-0.003419418452778526 0.0005486249245950708 1.413638062937947e-19)
(-0.003414048258642156 0.0005502874681732189 1.401903737290996e-19)
(-0.003405396122113238 0.0005499340466268077 1.4243086902616e-19)
(-0.003393279865902113 0.0005499164543323988 1.425668193789664e-19)
(-0.003385757919810473 0.0005519844640081284 1.423965977160582e-19)
(-0.003390908640380564 0.0005560444154832817 1.451431483483054e-19)
(-0.003395986991200576 0.0005619389573000865 1.458882054007353e-19)
(-0.003390384979605162 0.0005648945956416542 1.467529768322121e-19)
(-0.003379935859413239 0.0005647239166780753 1.47511761527398e-19)
(-0.003366402931738727 0.0005642307209060072 1.481487185450999e-19)
(-0.003355433017054654 0.0005657142230276783 1.496569102550573e-19)
(-0.003357132487794365 0.0005689281337224424 1.503638659380075e-19)
(-0.003366134562077014 0.0005745821563007807 1.506956394373288e-19)
(-0.003362051776982906 0.0005781202122075573 1.52745724722143e-19)
(-0.003346649830034448 0.0005748695325711755 1.52101437953633e-19)
(-0.003325472897509188 0.0005733553208527457 1.516632578913811e-19)
(-0.003314675971956209 0.0005752686167518953 1.520605951213476e-19)
(-0.003329493342750361 0.0005812439475310998 1.538336566785544e-19)
(-0.003345205062802764 0.0005913490457454538 1.555047108790455e-19)
(-0.003340844709938997 0.000596124083505388 1.544776648198049e-19)
(-0.003326343740462436 0.0005951292321557249 1.552368607272893e-19)
(-0.003308673229686066 0.0005949980202839541 1.564386370351109e-19)
(-0.003299156327890222 0.0005972570294449596 1.560814215181422e-19)
(-0.003310989343226794 0.0006029874987658897 1.571313248248698e-19)
(-0.003324386545095295 0.0006121666724819017 1.596677899409555e-19)
(-0.003316255453559064 0.0006148303050831427 1.597666144100192e-19)
(-0.003297298607050627 0.0006124925401638975 1.583236598683129e-19)
(-0.003280379334850246 0.0006146101607673668 1.595975799612149e-19)
(-0.00328191382661334 0.0006187791612830678 1.607024137447107e-19)
(-0.003303929623160945 0.0006278907400036191 1.630483895832955e-19)
(-0.003312783421675095 0.0006376040595109195 1.644200357460857e-19)
(-0.003303419126606495 0.0006408812185699173 1.644856457840738e-19)
(-0.003288286569587766 0.0006410398285982489 1.643120924848569e-19)
(-0.003276151571321311 0.000643921155856792 1.643518827702825e-19)
(-0.003280156354247536 0.0006489462863122352 1.679670401720942e-19)
(-0.00329807997760999 0.0006581260175731504 1.684530711923041e-19)
(-0.003298777580865117 0.0006653372825533678 1.689665631580371e-19)
(-0.003285753100766284 0.0006655339414876417 1.687442053875603e-19)
(-0.003269347364982531 0.0006676743139835818 1.685148405390261e-19)
(-0.003264302741593498 0.0006720416084579835 1.72926377648325e-19)
(-0.003283680000536285 0.0006815509097379582 1.69894759380512e-19)
(-0.003294619436587687 0.0006935714432795812 1.716341548798869e-19)
(-0.003287945813877119 0.0006999471858791809 1.717457817056209e-19)
(-0.003277411785604379 0.0007038024484908256 1.716639433212601e-19)
(-0.003269735283883028 0.0007092266625201613 1.76880658619577e-19)
(-0.003271352811070506 0.0007163492948488837 1.782063228170897e-19)
(-0.003275091234701191 0.0007251180280744927 1.67693087567243e-19)
(-0.003269602783846809 0.0007318213483925419 1.715038604975983e-19)
(-0.003260306885269194 0.0007364829930838041 1.710441049727458e-19)
(-0.003250934472054543 0.0007421588428411029 1.710052553279929e-19)
(-0.003244966530615697 0.0007485898530226252 1.735719761634952e-19)
(-0.003241207683589098 0.0007560285554435247 1.717085187090497e-19)
(-0.003233089763517453 0.0007629969552830462 1.713239276622463e-19)
(-0.003222630531450764 0.0007688028295389929 1.687252045528871e-19)
(-0.003211238949378136 0.0007746605543073939 1.729742764739463e-19)
(-0.003199800046453313 0.0007805927306666267 1.716163386808023e-19)
(-0.003188569725001809 0.0007866209112582813 1.652832131479615e-19)
(-0.003175539895147102 0.0007923876182242907 1.657602796931705e-19)
(-0.003161482207218511 0.0007978411137433232 1.708449034142649e-19)
(-0.003146509387494355 0.000803176751612117 1.637995229058836e-19)
(-0.003130706397196678 0.0008083214287232583 1.69131715430843e-19)
(-0.003114140254827756 0.0008133282137153707 1.619713200990503e-19)
(-0.003095805993137149 0.0008178004156872675 1.627817738158571e-19)
(-0.003076413611947684 0.0008222811988275443 1.688509467433292e-19)
(-0.003057558525221912 0.0008269989995370148 1.616634363511692e-19)
(-0.003039233428680029 0.0008320807605665226 1.638657622592358e-19)
(-0.003020395361295602 0.0008367737120680546 1.656028734922496e-19)
(-0.003007907763413933 0.0008434371669693644 1.688521834154759e-19)
(-0.00300523425330022 0.0008532446039485093 1.614390126476488e-19)
(-0.002997700061150903 0.0008625003093009235 1.686964579944708e-19)
(-0.002973650502599691 0.000866630467601523 1.698465281213672e-19)
(-0.002954682158204293 0.0008726112988755375 1.710771667578729e-19)
(-0.002956094901914882 0.0008852552251776885 1.809364140585822e-19)
(-0.002941976715255745 0.0008939297239765876 1.842195410261064e-19)
(-0.002902866823838004 0.0008939230249866228 1.716179717610961e-19)
(-0.002885426261571263 0.0009006166022252068 1.734415905025929e-19)
(-0.002895813164256936 0.0009180206587434342 1.705540021324612e-19)
(-0.002881638837932155 0.0009289898286035989 1.729137964335626e-19)
(-0.002853320376806352 0.0009340832095224858 1.730000372353725e-19)
(-0.002845232128672383 0.0009452548632310915 1.750493721502273e-19)
(-0.002834816705270122 0.0009579317095629325 1.698668010387059e-19)
(-0.002803357597851198 0.0009626802020783876 1.704837183359545e-19)
(-0.00277867593987588 0.0009685493298188234 1.712596085765772e-19)
(-0.002768603250310689 0.0009814247403950446 1.735986913893704e-19)
(-0.002742045593509134 0.0009896994011471035 1.827162108389544e-19)
(-0.002708776379357744 0.0009933947079999422 1.880412507662932e-19)
(-0.002687186129163147 0.001002383871895967 1.838782973083434e-19)
(-0.002662157847210356 0.001012432860211254 1.91205627188532e-19)
(-0.002628536227056937 0.00101857345284503 1.947816916145388e-19)
(-0.002594376397760847 0.00102448692854277 2.006417701154336e-19)
(-0.002558330062885033 0.001030931495476161 1.900068388418669e-19)
(-0.002518078559480859 0.001036061569288211 2.045695760648867e-19)
(-0.002474506101537462 0.001039498438459427 2.296168576652536e-19)
(-0.002427363727110848 0.00104189016629896 2.180324810858805e-19)
(-0.002377029896336636 0.001043384162447948 2.07968242860713e-19)
(-0.002323650933409617 0.001043339794791126 2.209774395893433e-19)
(-0.002264677377633039 0.001041188563744434 2.434749482416333e-19)
(-0.002201243867039498 0.001037600870687462 2.464545011847181e-19)
(-0.002133455200526274 0.001033101163727975 2.62188126072564e-19)
(-0.002060059998180235 0.001025419801039558 2.640569568841954e-19)
(-0.001980310548409819 0.00101463362947351 2.817420300773585e-19)
(-0.001892051135527867 0.001000669809328166 2.836761674351378e-19)
(-0.00179464990170542 0.0009823840072035197 2.834467704112984e-19)
(-0.001687235179988979 0.0009581658163519832 3.087901922306517e-19)
(-0.00156704685491197 0.0009241471353847769 2.812696782442349e-19)
(-0.001431462853192324 0.0008767461975632729 3.374069192092084e-19)
(-0.001280225679368961 0.0008071686232251326 3.216923174767125e-19)
(-0.001113566700986562 0.0006976636708119479 3.529041457606619e-19)
(-0.0009395050350255619 0.0005327834752831773 3.924340672084727e-19)
(-0.0007998521065853189 0.0002753978991599084 3.609103466071775e-19)
(-0.0007239046420680856 -0.0002091663139892803 4.186067185459379e-19)
(-0.0006855921634061108 -0.000980415487812478 2.900919760927477e-19)
(-0.0008308227803438707 -0.001886541761107014 1.863823651806085e-19)
(-0.001248801948175599 -0.002900949660611947 1.579494854731167e-19)
(-0.001734368697771441 -0.003766777392427534 1.317906156617801e-19)
(-0.002145951151562554 -0.004725301871764339 1.451729755140887e-19)
(-0.002719075978071804 -0.0057757851906795 1.460853754799141e-19)
(-0.003404884914368443 -0.006004521641313894 1.587681525984101e-19)
(-0.0038263973145691 -0.00538770341594825 1.589401812604383e-19)
(-0.003918845664104809 -0.0044393038108816 1.054937928434428e-19)
(-0.003787782335905931 -0.003505093600887222 1.160613662153113e-19)
(-0.003537267411290606 -0.002714833268284048 1.121698790863076e-19)
(-0.003235180807934509 -0.002089515772739759 1.083327888454603e-19)
(-0.002916525859329134 -0.001610189036577492 1.542528720787858e-19)
(-0.002595473075159035 -0.001247667915488197 1.345086714991401e-19)
(-0.002279073006608306 -0.000970887726978277 1.588655758588503e-19)
(-0.001971347423999363 -0.0007609340320184783 1.519400138677338e-19)
(-0.001671174417887773 -0.000604792558684297 1.5125427758067e-19)
(-0.001375329030786361 -0.000490429184054924 2.012098456873746e-19)
(-0.001082355267514814 -0.0004096404314285511 1.979731111975174e-19)
(-0.0007914458837796396 -0.0003576173032550611 1.967192787188313e-19)
(-0.0005026846442815071 -0.0003219268228131239 2.796061541287288e-19)
(-0.0002612187736437374 -0.0003482625459399881 3.590918372684916e-19)
(0.0002172063001921305 -0.0003373126797371123 1.228481058694043e-19)
(0.0004805603287492345 -0.000242621995049848 5.860125703231725e-20)
(0.0007328774014944201 -0.0001637940116283989 1.587570486389284e-19)
(0.0009122609846627104 -8.471965544597053e-05 1.64975491881981e-19)
(0.0009948123737378368 -3.105981286394724e-05 1.674627167936694e-19)
(0.000970825905280443 -2.733570773915037e-05 1.725862801709844e-19)
(0.0009096897726037351 -7.894417950326155e-05 2.535085667149203e-19)
(0.0008881474643376873 -0.0001404579727924421 2.031095503718146e-19)
(0.0008857652931236277 -0.0001754505590414782 1.828642914585838e-19)
(0.0008973429655113518 -0.0001865807567236785 1.520885927121924e-19)
(0.0009051074437014023 -0.0001848328979098693 1.399956418111409e-19)
(0.0009040690986018889 -0.0001781902176613856 1.349800829230889e-19)
(0.0008930802500567468 -0.0001763111917971171 1.683841043589031e-19)
(0.0008831386972511069 -0.0001863513244358261 1.122440718034055e-19)
(0.0008842270926538722 -0.0002014824551655713 2.404161161951855e-20)
(0.0008963208689755312 -0.0002150023657436721 1.43176213169953e-20)
(0.0009125513483833386 -0.0002234331376674899 2.958818862648813e-21)
(0.0009257037036094189 -0.0002288056904797493 -1.716875836128904e-20)
(0.0009373807012529062 -0.0002398976846041058 4.872427468640053e-21)
(0.0009564374651129031 -0.0002576271925289351 -5.762031230558532e-20)
(0.0009862700427497714 -0.0002764240057320627 -6.533545069041264e-20)
(0.001022576676315233 -0.0002908388886212671 -3.522996371528651e-20)
(0.001058084234104548 -0.0003000338930794419 -8.54675211665249e-20)
(0.001087993098393362 -0.0003050295667462085 9.015519110123118e-22)
(0.001110438479570333 -0.000306545939496763 -7.678908394578116e-20)
(0.00112471295268502 -0.0003064384643517383 -3.465072602857591e-20)
(0.001131716807875535 -0.0003087122255020284 -4.194016787911075e-20)
(0.001136455826619683 -0.0003160288215916637 -5.0649489950911e-20)
(0.001144852503607067 -0.0003251828248225624 -5.558267107497078e-20)
(0.001158824689091029 -0.0003341045840194731 -3.804334351757701e-20)
(0.001174851736025738 -0.0003412209454700187 -1.87264856739689e-21)
(0.001187724905253066 -0.0003455669014233485 -7.198900414184729e-21)
(0.001196798787385983 -0.0003473431501975817 -1.599253348061291e-20)
(0.001203010489995021 -0.00034727858449389 -2.129943999387408e-20)
(0.001204400435190148 -0.0003458060805306073 -2.731301369863277e-20)
(0.001199394113534339 -0.0003437355317768741 4.656345515298418e-21)
(0.001191302574919092 -0.0003426898167154927 1.488147638753843e-20)
(0.001184000817251062 -0.0003434714524123848 1.062106393372359e-20)
(0.00117717358275467 -0.0003452330367015396 -1.182673997653601e-21)
(0.00116983428187527 -0.000347370483107553 4.54898160744918e-20)
(0.001163691757625117 -0.0003503623362656032 4.041186324538271e-20)
(0.001160658154224488 -0.0003546073177871663 3.853624527927887e-21)
(0.001160017131109286 -0.0003589049996873355 -1.20197645438841e-21)
(0.001160304719630404 -0.0003624318957655478 4.795040154522315e-20)
(0.001161080407805875 -0.0003653882792218518 1.787211409839125e-20)
(0.001162033507111653 -0.0003680281335916302 1.9918028181753e-20)
(0.001162638560380407 -0.0003700981784123819 8.583172600047432e-21)
(0.001162270459684764 -0.0003717852636374358 -2.938346131911143e-20)
(0.001161386016386912 -0.0003738758539178705 -6.031434421770608e-20)
(0.001160962854913683 -0.000376576053302927 -3.496048608176523e-20)
(0.001161140004936907 -0.0003792242381113714 -4.074791582430621e-20)
(0.001161485839959226 -0.0003812876843396089 -5.132222375702182e-20)
(0.001161471038896056 -0.0003827493759334894 6.682904341428276e-21)
(0.001160547707325855 -0.0003840598374532227 3.421282617697001e-20)
(0.001159346344087989 -0.000385441382046277 3.347046471602557e-20)
(0.001158172181326394 -0.0003867458217941671 9.685090873219969e-21)
(0.001155994875277708 -0.0003880704433735099 1.731530500563984e-20)
(0.001154038908457028 -0.0003899925982229474 8.267691358057535e-20)
(0.001154058942774005 -0.0003924233887741875 8.516164494715079e-20)
(0.001153961614047712 -0.0003941895469149711 8.672116460411495e-20)
(0.001152719580433831 -0.0003950886070640039 9.00983029979278e-20)
(0.001152173992414294 -0.0003960011403724794 1.253136379256778e-19)
(0.001151130715932168 -0.0003969325044984852 1.328144029433321e-19)
(0.001148441423031965 -0.0003976836623205552 1.223937456768994e-19)
(0.001146780642142535 -0.0003987795199830857 9.03164969154836e-20)
(0.00114634131073565 -0.0003998935656875473 9.409407458039637e-20)
(0.001143847053514905 -0.0004003139585101766 9.515506992210885e-20)
(0.00114081473708442 -0.0004011823157898915 9.686892038312772e-20)
(0.001140027743591894 -0.0004033795135406883 1.333471835489074e-19)
(0.001139235908617427 -0.0004057237404166842 1.388294520108347e-19)
(0.001138719644107373 -0.0004080184604705453 1.469136395419383e-19)
(0.001140624773546085 -0.0004106714709490185 1.255635338271316e-19)
(0.001142261049600454 -0.0004128994331137859 1.315309700044072e-19)
(0.001142968673881135 -0.0004150455110447868 1.377673042254349e-19)
(0.001145140018449559 -0.0004180948384929185 1.441572600586951e-19)
(0.001148295643250585 -0.0004214951294264981 1.529443927687247e-19)
(0.001151466938979042 -0.0004246532480435055 1.014973937459686e-19)
(0.00115521340196096 -0.0004280188647869009 1.049980625586297e-19)
(0.001159902477122513 -0.0004318077846434767 7.714285886127945e-20)
(0.00116500965248516 -0.0004354802661760845 4.868539872770789e-20)
(0.001170136831694516 -0.0004390150911540712 2.38986613232175e-20)
(0.001175546356082763 -0.0004429680206305399 1.228986141686369e-20)
(0.001181634980102753 -0.000447404107866651 -2.356710467281733e-20)
(0.001188400908053998 -0.0004518545210799797 -2.334862298825861e-20)
(0.001195322868385451 -0.000456437703430231 2.347462488947537e-20)
(0.001202689909322283 -0.000461894737819328 -2.245206540263592e-20)
(0.001211659099712168 -0.0004683373959397196 -2.296886510985488e-20)
(0.001222542878039916 -0.0004752959396682052 -5.334294042652714e-20)
(0.001234630737113149 -0.0004820949729367236 -5.642060121117439e-20)
(0.001247262468503245 -0.0004884705505399612 -6.1393679393406e-20)
(0.001259868690525901 -0.0004944279485201368 -8.754612805503042e-20)
(0.001272034363846993 -0.0005001607954677704 -9.052883919589339e-20)
(0.001284201450989396 -0.0005062070232229147 -9.231726510149197e-20)
(0.001296587880239234 -0.0005129632958350205 -7.061426137900233e-20)
(0.001309443737577477 -0.0005202187848703559 -4.724378020623376e-20)
(0.001323569024060165 -0.0005277379579433709 -5.317631998928597e-20)
(0.001338492130196282 -0.0005348451570748487 -5.687422991471746e-20)
(0.001352888949639376 -0.0005412778364416685 -6.115551571926564e-20)
(0.001366902192680709 -0.0005478193593404866 -6.622088518378631e-20)
(0.00138057157110906 -0.0005546770972988438 -7.233138126994122e-20)
(0.001394394330087003 -0.0005616359953372933 -7.801753146220046e-20)
(0.001409511436240069 -0.000568550138836236 -5.555800384908645e-20)
(0.001424514392601506 -0.000574710158510594 -3.231155512414425e-20)
(0.001438007530246063 -0.0005799724313200903 -5.591736512778383e-20)
(0.001450545164542891 -0.0005847049052262799 -5.523771023901673e-20)
(0.001461606745174756 -0.0005885062565488979 -5.627953190315057e-20)
(0.001471232522010246 -0.0005907861565447611 -5.47588225825282e-20)
(0.001479597519809563 -0.0005911883490777969 -1.477902122840998e-20)
(0.001483690723449963 -0.0005892421715068593 -1.343272425342625e-20)
(0.001482955614192145 -0.000586175507985868 8.402751854221265e-21)
(0.001498892859344871 -0.0005902529268449441 2.695088298111913e-20)
(0.00151467410098953 -0.0005937329146376048 2.908694006863142e-20)
(0.001527786237687056 -0.0005953544085338085 2.802783032171503e-20)
(0.001536920714006581 -0.0005947892805707555 3.037182586455122e-20)
(0.001541401366495891 -0.0005917187600385163 3.134256451654026e-20)
(0.001541317934484243 -0.0005864937713103912 3.619614290253521e-20)
(0.001536283085861846 -0.0005788939269385318 6.18484942982139e-20)
(0.001525977193958364 -0.0005680936862197844 6.467732858802594e-20)
(0.001509034990907045 -0.000553329799448804 6.818171018088682e-20)
(0.001483945243085108 -0.0005341668044775595 7.644088227512979e-20)
(0.00145042770871357 -0.0005087360680201838 7.679915352871384e-20)
(0.001429430855668916 -0.0004860516323274825 9.065610253564944e-20)
(0.001322489800280357 -0.0004489519319376348 1.12241484436638e-19)
(0.001214306572457035 -0.0003947019764550669 9.347199457196608e-20)
(0.00112204280980227 -0.0003375829887765452 8.860548961356656e-20)
(0.001024643189208612 -0.000259590184087331 9.818869423248357e-20)
(0.0009077035585834116 -0.0001431445153262514 1.100257565085888e-19)
(0.0007759372246616225 3.951424930627803e-05 1.331447461497284e-19)
(0.0006633989704608566 0.000344360607776143 8.861855161038477e-20)
(0.0003775827040056553 0.0009495689756180832 2.16369996628165e-20)
(-0.0001074785814481132 0.00169686968959633 1.904062014465393e-20)
(-0.002819330601379609 0.0009482269660939672 5.862985258752814e-20)
)
;
    }
}


// ************************************************************************* //
