/*--------------------------------*- C++ -*----------------------------------*\
| =========                 |                                                 |
| \\      /  F ield         | OpenFOAM: The Open Source CFD Toolbox           |
|  \\    /   O peration     | Version:  v1812                                 |
|   \\  /    A nd           | Web:      www.OpenFOAM.com                      |
|    \\/     M anipulation  |                                                 |
\*---------------------------------------------------------------------------*/
FoamFile
{
    version     2.0;
    format      ascii;
    class       volScalarField;
    location    "1732";
    object      yPlus;
}
// * * * * * * * * * * * * * * * * * * * * * * * * * * * * * * * * * * * * * //

dimensions      [0 0 0 0 0 0 0];


internalField   uniform 0;

boundaryField
{
    inlet
    {
        type            calculated;
        value           uniform 0;
    }
    outlet
    {
        type            calculated;
        value           uniform 0;
    }
    top
    {
        type            symmetry;
    }
    bottom
    {
        type            symmetry;
    }
    frontAndBack
    {
        type            symmetry;
    }
    airfoil
    {
        type            calculated;
        value           nonuniform List<scalar> 
299
(
10.22696669935407
10.7021857380502
10.89740881532
10.92298991594268
10.91926733762112
10.89971697690581
10.87204346197283
10.83969519388648
10.80441460694346
10.6862126545976
11.90827184899273
13.107883754979
13.13781474052432
13.14320499896286
13.1385607108883
13.12871287236919
13.11629448153436
13.10317212782455
13.08896964554543
13.07383776745393
13.05892523348271
13.04365292996706
13.02885386441623
13.01805772121265
13.00873392008421
12.98692796313049
12.96085207377242
12.93870358856217
12.91867614522297
12.91615692445812
12.93750159344774
12.93417735826667
12.87547400053358
12.82353262850097
12.79524922891699
12.79957446878745
12.87548387912372
12.97142107932518
12.905503040079
12.76810042764959
12.71741538950584
12.732830695322
12.81864879557543
12.92692456611394
12.90639565921091
12.72832726536775
12.64465411931447
12.67138604072274
12.87489686742315
13.0883305146927
12.97114409285911
12.73892486093688
12.65926134296762
12.70561829487569
12.87368338441864
13.02003120544889
12.91536586353847
12.70613270439305
12.65187900400033
12.75948618813246
13.00979819173128
13.07576630995987
12.83392222815233
12.6687212705914
12.67101271420896
12.78041098038763
12.93634606821315
12.94227553431425
12.73222892251159
12.6383230380424
12.67089673091236
12.84422633520213
12.97487092657494
12.80362308943784
12.65009947895264
12.63174402431785
12.67510105385127
12.73425192725126
12.69208954471518
12.58658739608899
12.53866874640218
12.52233361166905
12.53350012563064
12.50836351317635
12.43039299763523
12.37573743293521
12.3301771210715
12.29243440720488
12.25187881443546
12.19274028072696
12.13650021767113
12.07986487020834
12.02233584911622
11.96238946221179
11.89762489256186
11.83361186301643
11.7779107603774
11.71671038204366
11.63343535147547
11.56364251510564
11.51142758580752
11.45190266992683
11.34895748131709
11.27446147143706
11.23518165562367
11.16560180283647
11.02503886670112
10.95937534558843
10.94379506077617
10.83100225404057
10.64891262114294
10.56540334260741
10.46526967041402
10.28255735665619
10.13712969129471
10.0254137531305
9.854355556488864
9.652337287135341
9.505215657012831
9.32055539972353
9.097209894662404
8.893694362040561
8.683104553616371
8.453131727192577
8.218396379964274
7.97580767046524
7.721705913981699
7.457669091940645
7.181442532165334
6.8916332835004
6.594105951121826
6.281102449129788
5.955916813385302
5.618351665292123
5.264148213770539
4.900594270398499
4.522365802030421
4.130788704416566
3.72681286040185
3.31150092526894
2.886170202385608
2.454067525018998
2.029069737357086
1.620868419145271
1.233567651608668
1.426584278814475
1.749361385786629
2.173977889937331
2.696633559933992
3.193107827725219
3.727525684535002
4.23190530393115
4.807775438997286
5.442029099405397
6.093307678595434
6.721671521997057
7.293574874588776
7.784791955983569
8.177955361082502
8.460467316989529
8.622762991111355
8.654431799476878
8.540777662537151
8.258026789398281
7.764290819638631
6.977238296589739
5.774150351487518
5.264835123311666
6.351420176175497
7.05505465963693
7.51752815732519
7.847492158152513
8.124802641767996
8.291288078960186
7.996012360638174
7.68949189668071
7.622505360580898
7.580082458445111
7.542309400233471
7.470787994327472
7.36462858146885
7.348890711547047
7.396210044495275
7.467891305308013
7.550062983328422
7.641101330528722
7.75021483532772
7.868333079754886
7.977575279009362
8.070771768673398
8.148571017579879
8.204608770435531
8.23374577553559
8.250895269093336
8.279977885145492
8.31700309438166
8.335497519633211
8.338300655960307
8.34376294177474
8.342280900666555
8.316023338673059
8.275274211400214
8.231810307663007
8.181405015306927
8.10822782057593
8.032045844036189
7.97852402023199
7.941252406641484
7.905491924937469
7.877689900599152
7.86154532461668
7.845412419334312
7.827634466577951
7.809447581709751
7.792711934130036
7.777411659139839
7.763137763317718
7.75157825258011
7.740709524954633
7.728390597301917
7.717343648466369
7.707314163498779
7.693817489388882
7.683915862561214
7.680176863883375
7.669493400652498
7.661495736261383
7.66244865829696
7.654298098377512
7.638671823740515
7.638488319839985
7.636908025941079
7.621314542818147
7.616919426727963
7.624482052844204
7.618152521886431
7.620655882065042
7.638634636998468
7.647747325621498
7.66336802516571
7.690261154861901
7.715162148677388
7.744078580471477
7.782182829137257
7.823730901211872
7.867662016955551
7.917356415960564
7.972694250685504
8.032715989393813
8.09825701563487
8.168803279865255
8.245098060592793
8.328428449834052
8.416643982457275
8.508127920111074
8.603943752048473
8.70310990347523
8.805303860735391
8.911319961002425
9.019135252828367
9.131608354114968
9.252025165487062
9.375325636055429
9.500482309310879
9.630272292521648
9.762439139329222
9.901200984933732
10.04665960064239
10.18881767804914
10.33180335348819
10.48206080316356
10.63577225772761
10.7981714505804
10.96720338755366
11.13345461509613
11.31125905155434
11.51079827250597
11.72138088041899
11.9428960872029
12.1730314441644
12.39671417076938
12.62620470200793
12.87070092057088
13.12085978771455
13.38052871545654
13.64509163351178
13.91004985510897
14.18208132444806
13.15940714122164
11.09122197983101
11.45997220303335
11.76824229138973
12.14870158197915
12.60052516677546
13.18387376096807
13.98340399457686
15.24632588030938
15.92198846139323
10.62572155122631
)
;
    }
}


// ************************************************************************* //
