1.0013360856295 	-0.0004289504801714079 	2.407912790544436e-07 	-8.398474999609905e-20 	-0.0001553719344664057 	3.645700661219895e-07 	1.098923178427262e-20
1.0042908759525 	-0.001301760813883856 	-1.130857399976452e-06 	-2.211359244397787e-19 	-0.0004093776684193753 	-2.574704631160895e-06 	-3.09078046106141e-20
1.007870686155 	-0.002248534666794948 	-4.047583444837924e-06 	-4.31583084263221e-19 	-0.0005459699371942632 	-9.035410516112876e-06 	1.234540779485025e-19
1.012207725227 	-0.003235368987643007 	-9.88850665008497e-06 	-2.782756651697627e-19 	-0.0005981856612460189 	-1.804698334563707e-05 	9.105901459444226e-20
1.01746216802 	-0.004197490490636118 	-2.05312391451979e-05 	-6.048660291601713e-19 	-0.0006097121812658733 	-3.018558979636645e-05 	2.26377979680681e-20
1.023828070795 	-0.005021254042266179 	-3.669449441839107e-05 	-7.478473772918289e-19 	-0.0005963298356447485 	-4.615761731489084e-05 	-3.824329577124288e-20
1.03154053808 	-0.005572316994497104 	-5.938560488125277e-05 	-1.317958543480338e-18 	-0.0005627156911369291 	-6.661881872395474e-05 	-8.839002597408702e-20
1.040884405515 	-0.005757118236937421 	-9.187252606523408e-05 	-2.326192670432812e-18 	-0.0005091892330057307 	-9.243135851827604e-05 	-1.30234624007048e-19
1.052204759335 	-0.005633021466998021 	-0.0001345310983090169 	-3.343765212583623e-18 	-0.0004336785685693531 	-0.0001247057328140431 	-1.023437205874946e-19
1.065919681105 	-0.005366178889693912 	-0.0001854040647989456 	-3.480052629652645e-18 	-0.0003321958850697889 	-0.0001648034697656555 	-8.17822198278783e-20
1.08253568818 	-0.005039743212270725 	-0.0002435856353946781 	-2.411908276375754e-18 	-0.0001987112824138615 	-0.000214357613242373 	-7.010409888056124e-20
1.102666440305 	-0.004647491364259011 	-0.0003127171855104174 	-1.997809307636972e-19 	-2.46486264659128e-05 	-0.0002752998778879064 	-7.094602066281985e-20
1.1270554033 	-0.004167002534910604 	-0.0003957892714204414 	2.485696477309598e-18 	0.0002019835128360577 	-0.0003498770631547677 	-8.961752758435759e-20
1.15660330655 	-0.003577782666010795 	-0.0004954957062230663 	4.524543660269345e-18 	0.0004979128428847734 	-0.0004406401215203147 	-1.374956421535471e-19
1.19240140855 	-0.002861670113587569 	-0.0006153187819252238 	5.107693450183621e-18 	0.0008865206270851249 	-0.0005503712022352921 	-2.431982586017586e-19
1.23577179925 	-0.001999482373924361 	-0.0007591992162092857 	4.358434719175514e-18 	0.001400532685751717 	-0.0006818929427197689 	-2.919562675956566e-20
1.2883162272 	-0.0009671885312783898 	-0.0009301997433766227 	2.954576319648045e-18 	0.002085691613614759 	-0.0008376522547638024 	-8.14009761427179e-21
1.317237309010639 	0.0002746656397828359 	-0.001129198296476612 	1.507037297581456e-18 	0.003005478645234007 	-0.001018886161500746 	1.81380305003394e-19
1.352111244460639 	-0.0001343028320622092 	-0.001114577786036781 	2.097458226560244e-20 	0.002626252640359671 	-0.001030464369127566 	1.703733226641744e-19
1.4290999277 	0.001423470681363594 	-0.001340191452054515 	-1.114584971045354e-18 	0.003899820017566652 	-0.001239271325321144 	2.985050767393673e-20
1.52253860195 	0.003387909885905576 	-0.001583873553298046 	-1.412485977240335e-18 	0.005624700562393642 	-0.00146594163421222 	6.504882568560151e-20
1.63574214035 	0.005895504131837898 	-0.001823772168096037 	-1.32279085440047e-18 	0.007943833718122245 	-0.001692505109885114 	-6.585470844954611e-20
1.77289135805 	0.009091677668768077 	-0.00201755008040648 	-5.581516209260098e-19 	0.01098996899879745 	-0.001882287232892265 	1.191499611810581e-20
1.93905142865 	0.01302590966845739 	-0.002097610583697057 	-9.166497642833398e-20 	0.01477433030588648 	-0.001977091900458379 	-2.934385658472857e-20
2.14035895 	0.01742768435043002 	-0.001963651183490681 	3.070560584145326e-20 	0.01898048703619951 	-0.001915130571364854 	1.067604854991129e-20
2.38424858 	0.02149882335315631 	-0.001625701399418592 	1.611667813026055e-19 	0.02290553452261952 	-0.001709061951207257 	2.997923579218987e-19
2.651465706 	0.02436430243172812 	-0.001317578237597094 	4.303190713842108e-19 	0.02574442732702215 	-0.001478095416336889 	5.37758541497163e-20
2.895355335999999 	0.02618054190794917 	-0.00108759611484118 	-6.080482329058644e-20 	0.02744575080912375 	-0.001274993359983972 	-2.372809070609057e-20
3.096662856999999 	0.02736671374768355 	-0.0009136111442616952 	-4.737943922007309e-19 	0.02838110974433519 	-0.001101263419973864 	-4.146523214610549e-19
3.262822927499998 	0.02815741373836032 	-0.0007748955619270299 	-9.019045056934949e-19 	0.02882961356869916 	-0.0009500244855851082 	-3.74650500707276e-19
3.399972145499998 	0.02865702385732512 	-0.0006622192635824203 	-1.212213077227115e-18 	0.02893761036395961 	-0.0008186068086994577 	7.633865159409621e-20
3.513175683999998 	0.02891180441785378 	-0.0005674849766692932 	-2.534518870614691e-18 	0.02878496619574684 	-0.0007048328887843703 	-3.207532065142528e-19
3.606614357999999 	0.02894853909711946 	-0.0004900646444203444 	-3.268692012184156e-18 	0.02840425671057801 	-0.0006053157517497406 	-1.870271212077735e-19
3.683739030499999 	0.02878182430517106 	-0.0004225735691215984 	-4.03069004230772e-18 	0.02779399958215856 	-0.0005159593973505972 	-5.270336898127378e-19
3.747398058499999 	0.02841681965737279 	-0.0003634621325465232 	-4.65216109623769e-18 	0.0269379611481665 	-0.0004330440583390595 	4.076178536810431e-20
3.799942486499999 	0.02787347399532113 	-0.0003101480354275605 	-4.703355628008411e-18 	0.02583302852886414 	-0.0003547666949344032 	-4.590672881148786e-20
3.843312877 	0.02717749772059314 	-0.0002618217217035197 	-4.305321480661546e-18 	0.02451413480566772 	-0.0002821424664601098 	-1.47435357633058e-19
3.879110979 	0.02634495287011599 	-0.0002176301900285738 	-3.888971100853595e-18 	0.02305319359509687 	-0.0002178529936803553 	-1.981123755254598e-19
3.9086588825 	0.02539204436026161 	-0.0001781918735062311 	-2.751137292883844e-18 	0.02153096105407703 	-0.0001639804259491837 	-3.641032554300528e-20
3.9330478455 	0.02433890567823339 	-0.000144921116655698 	-1.963769068648895e-18 	0.02000982943517651 	-0.0001208907974808686 	2.247722857834427e-19
3.9531785975 	0.02319970573969798 	-0.0001185856414473272 	-1.167286191567065e-18 	0.0185250918674384 	-8.757971861327335e-05 	4.367085982057753e-19
3.969794604500001 	0.02196307400764815 	-9.832084953426076e-05 	-6.981129384294611e-19 	0.01708920649661425 	-6.242985988997869e-05 	8.948933370375197e-19
3.983509526000001 	0.02056980799697811 	-8.188025010200102e-05 	-4.03105557176271e-19 	0.01569908042726059 	-4.375470924068527e-05 	3.071827468514429e-19
3.994829880000001 	0.01888877819577746 	-6.639253662562069e-05 	-1.618664237345514e-19 	0.01434150378909621 	-3.006039776110735e-05 	7.851321343629819e-20
4.004173747500001 	0.01671146998032108 	-4.979595163828714e-05 	-2.145546088893774e-19 	0.01299557601109419 	-2.012695685157501e-05 	-1.919373089779357e-19
4.011886215000001 	0.01388186774007401 	-3.256206639013576e-05 	-2.526726264834546e-19 	0.01163185854948193 	-1.300284490041843e-05 	-5.179550850161784e-20
4.018252118000001 	0.01063091017613776 	-1.779374621713599e-05 	-1.462360321183225e-19 	0.01020698413325233 	-7.969652176924784e-06 	-4.924571711787915e-19
4.0235065605 	0.007502404413113124 	-8.230785422788008e-06 	-1.128687360671061e-19 	0.008648839932597928 	-4.499111316747524e-06 	-6.09136882354713e-19
4.027843599500001 	0.00481475139057842 	-3.194619194840629e-06 	-1.415010997437016e-19 	0.00681666915158117 	-2.179724626275995e-06 	-6.778093692962778e-19
4.031423409500001 	0.002603521153945289 	-8.458184681793659e-07 	-1.152037694635263e-19 	0.0044302997144876 	-6.672510899564892e-07 	-5.991288733115506e-19
4.034378200000002 	0.0008030648245967825 	9.741321951911863e-08 	-3.73466809823964e-20 	0.001493213755118656 	1.381601596689807e-07 	-1.857595981784001e-19
