/*--------------------------------*- C++ -*----------------------------------*\
| =========                 |                                                 |
| \\      /  F ield         | OpenFOAM: The Open Source CFD Toolbox           |
|  \\    /   O peration     | Version:  v1812                                 |
|   \\  /    A nd           | Web:      www.OpenFOAM.com                      |
|    \\/     M anipulation  |                                                 |
\*---------------------------------------------------------------------------*/
FoamFile
{
    version     2.0;
    format      ascii;
    class       volScalarField;
    location    "0.00000026";
    object      betaFieldInversion;
}
// * * * * * * * * * * * * * * * * * * * * * * * * * * * * * * * * * * * * * //

dimensions      [0 2 -2 0 0 0 0];


internalField   nonuniform List<scalar> 
3500
(
1.560761290338937e-08
2.275674589991899e-08
-1.818747965086073e-10
2.707795809600428e-08
6.86195678158401e-09
-1.007445002931783e-08
9.86144284627168e-09
-1.730894135298582e-08
7.97244863214781e-09
-2.450936867755464e-08
1.146610769641556e-08
-1.645852000666258e-08
-2.259995194687098e-08
-9.868120787601186e-09
2.786282575994422e-08
-5.056894261238643e-08
-6.51860483631597e-08
8.424879789262038e-09
-1.655023321113585e-07
1.304532672338238e-08
5.470358972429866e-08
-4.28004494894745e-09
-5.963095079063952e-08
-1.065921100625974e-08
-2.630522241829185e-08
3.732323790555403e-09
3.825673696448572e-08
1.91592136527721e-08
3.461965165450626e-08
-1.203192312727506e-08
-4.93078693273166e-09
3.069126875868391e-09
6.635941082546469e-09
-6.703227430175389e-09
-1.175301387452934e-08
4.448491262535115e-09
2.696643681191193e-09
1.612116013525793e-09
-2.303054809206962e-09
4.395283741623561e-09
6.926795319164738e-09
8.107796168006412e-10
-1.33123016015333e-08
-4.047313634495799e-11
8.59391771921424e-09
-4.931788585300343e-09
6.045868939524708e-09
2.801341560658481e-09
1.627367720746574e-09
1.289173491924162e-09
8.654535275515152e-09
7.024026740942364e-09
-9.701842845656414e-09
-8.849833111995722e-09
8.961103934463734e-09
7.463260648500664e-09
-5.570310394980875e-09
2.872706660939263e-09
-3.988889689355121e-09
2.115594659045866e-08
1.747451490671814e-08
2.512071062272576e-08
1.028284126687408e-08
7.809315648077408e-08
-3.685866989423654e-08
-4.381482345154601e-08
4.798315451525201e-08
1.457565937783517e-07
6.350677891082172e-08
1.231758184946892e-08
1.228192564114538e-07
1.742054496687418e-07
-2.653595611333896e-10
2.034754610374116e-07
5.401736689574474e-08
-6.791082562586947e-08
6.620212057535578e-08
-9.387335378948662e-08
4.879918856442231e-08
-1.584235915348248e-07
7.57006430686647e-08
-1.208149471036153e-07
-1.49739756786567e-07
-1.052026316963597e-07
2.79185234041581e-07
-2.947369291389493e-07
-2.645920244077585e-07
9.913163618230949e-08
-7.506701741874115e-07
1.269851568565698e-07
1.927844663918234e-07
2.712071281751664e-08
-4.013720334261824e-07
-7.767321995441098e-08
-1.405877965010124e-07
3.599556021409798e-08
1.870372098588283e-07
1.347332611239157e-07
1.240891770316738e-07
-6.955232592949367e-08
-2.83573652641649e-08
1.47330245041423e-08
4.384864446425028e-08
-3.983541291248477e-08
-7.666465097208689e-08
2.749822088773823e-08
2.341270456029435e-08
6.919445949141691e-09
-1.201189859343759e-08
2.428642440866375e-08
2.982072642536505e-08
5.536968102432542e-09
-5.849456551670732e-08
-6.981487501091909e-09
4.969549821906544e-08
-4.143801801842475e-08
3.895731855781319e-08
1.453421259795725e-08
8.58957990778875e-09
1.28264981602284e-09
6.613639102563099e-08
3.345831167017409e-08
-4.32026712852533e-08
-4.404398673135449e-08
5.291235024812445e-08
5.035527178374053e-08
-3.077149279131001e-08
1.683327849429732e-08
-2.458424066917465e-08
1.532717009967694e-07
1.52250976176755e-07
1.837175392914242e-07
8.963792048810325e-08
6.873609220948733e-07
-3.318083906177513e-07
-4.24794456116802e-07
5.028359650416058e-07
1.200741720802131e-06
1.265085842629402e-06
1.127635137020149e-07
1.202778955573268e-07
1.032937925528864e-06
1.016862429896708e-08
8.811164158262568e-07
3.326502602585577e-07
-3.358297501277509e-07
2.850921550672247e-07
-3.139722829183946e-07
1.570524038564045e-07
-6.776432221024392e-07
2.72356574416735e-07
-2.511150432867609e-07
-6.321459718847139e-07
-9.408959056093973e-07
2.189918663378291e-06
-1.298016801993609e-06
-7.669882844218354e-07
2.782521440818187e-07
-2.165332385201087e-06
1.296795800445667e-06
-1.467977272994728e-07
4.411376580113214e-07
-1.465088646710961e-06
-2.726069477567856e-07
-6.425831186367222e-07
3.447580489202816e-07
4.721158198131912e-07
7.356657622009266e-07
3.183314054739535e-07
-3.030349347796366e-07
-1.048930156893462e-07
5.657308496947734e-08
2.050771448125408e-07
-1.850387405339263e-07
-4.341345256445633e-07
1.099856341558125e-07
1.381783765096944e-07
-3.324820434225489e-08
2.011778076208013e-08
5.991483835791378e-08
7.779484281674796e-08
2.180959902870455e-08
-1.58909256987112e-07
-7.889536625015847e-08
2.073475099923327e-07
-2.988800210443166e-07
1.698272976785171e-07
4.236515152614798e-08
2.512365875827426e-08
-3.154761299985234e-08
3.700659259948422e-07
9.607502844755785e-08
-1.150017862208393e-07
-1.480386910643515e-07
2.289160095130834e-07
2.223537812820263e-07
-1.110491915487752e-07
6.008041199129088e-08
-1.038347334822578e-07
7.842705175133318e-07
8.028357793604446e-07
7.288249865393005e-07
7.061679690030572e-07
2.68704822236199e-06
-4.705659089497503e-07
-1.725420772303817e-06
2.663728845783402e-06
4.289998038371988e-06
6.909909143434081e-06
4.885552466285537e-07
9.652713592858061e-07
3.819533250473668e-06
2.304257446252909e-07
1.286259829685462e-06
1.189095542794504e-06
-9.061688810714583e-07
4.90429906081974e-07
-8.180930315312206e-07
7.052454379591004e-07
-1.853208113514183e-06
8.867765640179571e-07
1.172234168187588e-06
-1.712357607153995e-06
-1.462024420665678e-06
6.189480517374035e-06
-3.53826270665063e-06
-2.764552053176652e-06
-1.539201891695025e-06
-4.806058432170164e-06
5.012906270987131e-06
-1.921256010376452e-06
6.494452120818252e-07
-1.928598934331969e-06
-1.534656510206042e-07
-1.742445588936474e-06
2.380557274392781e-06
1.495817773932097e-07
2.305246909365137e-06
8.054768148585292e-07
-8.126564635172704e-07
-5.505353283146618e-07
1.699261801011422e-07
3.573535363077145e-07
-5.931476064756368e-07
-1.827379004249132e-06
2.299963117775401e-07
4.402978662813215e-07
5.034327713039686e-08
1.626231039720104e-06
2.097999579635787e-08
1.77937671793922e-07
9.571932149002235e-08
-4.777612460842342e-07
-5.536176444591534e-07
4.226739186138526e-07
-8.100736117137142e-07
6.42602369221072e-07
1.496748057110997e-07
5.152692832288931e-08
-9.023671545084515e-09
1.432444389071091e-06
2.580764996616473e-07
-2.891665662218276e-07
-4.1887564192934e-07
6.713706540532237e-07
7.932852366007238e-07
-3.401901743279677e-07
1.837201218886161e-07
-1.028523345433129e-07
2.583409179340613e-06
2.386629549816327e-06
9.69959618037217e-07
3.778868330811523e-06
2.187528741109112e-06
4.165232967940535e-06
-1.449792483881434e-06
5.228907007324602e-06
6.177659956476355e-06
6.964994388670567e-06
1.030673554902573e-06
5.911212083735318e-06
-3.151890589480612e-06
2.117866361236602e-06
-1.509044013367095e-06
1.903872988166664e-06
-5.553673916436723e-07
-7.514623476392236e-07
-1.418338276452915e-06
3.476631459682343e-06
-1.490067667802398e-06
3.002770717497929e-06
1.873463243479595e-06
-2.23769375923046e-06
5.993617808682784e-06
9.818370754546306e-06
-4.923869559363759e-06
-5.747770054213326e-06
-4.242106751431212e-06
-6.906316350447552e-06
5.349973964851081e-06
-3.558075208427976e-06
-2.580407218635828e-06
-1.490538125758208e-06
3.8786044622801e-08
-1.722953678672328e-07
4.201720689938173e-06
-3.265179188822604e-06
2.772023658159234e-06
1.251059735701123e-06
-8.455520615016365e-07
-1.687767312775371e-06
-2.654301617089349e-07
-5.256283307691369e-07
-7.71485635618301e-07
-2.620916465268122e-06
4.598825710986156e-08
7.353400944811068e-07
2.026795809665335e-06
5.394216641712248e-06
2.014688838025952e-07
3.600906046020902e-07
4.015982823676044e-07
-1.758064059475819e-06
-1.89904206568205e-06
-8.454095418237927e-07
2.967580141885122e-06
2.188817939464049e-06
6.739935204203679e-07
-5.330746974577577e-08
1.432796781492105e-06
3.370998136987551e-06
7.009363613350392e-07
-8.012459924494227e-07
-8.694981289560696e-07
9.249270087797784e-07
1.998939459721588e-06
-5.722813296294648e-07
2.258287936868115e-07
1.413795715381335e-06
3.982758836650523e-06
5.327103903628875e-06
-1.331297493708822e-06
8.419236119063411e-06
-5.077157937443131e-07
7.443084300424914e-06
1.608659674569503e-06
5.374583202980337e-06
2.141602010864206e-06
-7.06735062918151e-07
2.294597675773255e-06
1.509793376245222e-06
-7.733010251810763e-06
7.799967887119931e-06
-2.113314126554034e-06
1.950358845313644e-06
1.23929734827934e-07
-3.056779821592375e-06
-2.039926546359877e-06
6.389922994378749e-06
2.11183494095096e-06
6.55177255459567e-06
9.895467420757651e-07
-1.176332939249397e-06
8.737304808653574e-06
7.074557724145259e-06
-5.131866927546393e-06
-6.394757327690148e-06
-5.203865921896849e-06
-5.677427013151909e-06
-8.742709235798703e-07
-3.850100174990864e-06
-2.440953828096363e-06
-1.773927560875918e-06
1.477346180358453e-06
1.413240270885571e-06
-4.470937631533942e-07
-6.56517080723e-06
1.537128286915856e-07
-9.958893415124376e-08
-8.326430839537072e-07
-1.681145349464349e-06
-2.057586725379715e-06
-4.500520302708736e-07
-7.720886140230239e-07
1.53216326847602e-06
9.491284106572381e-07
1.702303701920338e-06
4.594464662920893e-06
5.055928579572462e-06
3.688289070411832e-06
5.587428124595599e-08
-3.5256611839683e-08
-4.031104177154403e-06
-1.572841220909404e-06
-4.360329570589574e-06
7.6661508242968e-06
4.859438824401632e-06
1.699805293704695e-06
-3.847508012328893e-07
4.638172785711431e-06
5.176750154107303e-06
1.551127156044906e-06
-2.287550459552122e-06
-1.658006281990613e-06
1.499705399737022e-06
3.163127651326063e-06
8.06740105528984e-07
-1.560675396598857e-07
5.024533130894152e-06
3.088642654264163e-06
5.497428046871611e-06
-5.012151589571391e-06
9.06032367973012e-06
4.19759938328504e-07
7.464959322464117e-06
3.928261473456243e-06
3.381411113047559e-06
-1.350052200954473e-06
-4.672719960599811e-06
8.372028058463524e-06
-2.574162646035631e-06
1.081802282791284e-06
9.966541002337967e-06
2.580401516513846e-06
1.356438385306265e-06
-9.787844468123259e-07
-3.703524161109803e-06
-2.590491035857236e-06
4.524714557643959e-06
3.606954612245971e-06
7.745119267789148e-06
5.776018744399844e-07
1.441662481992673e-07
4.14015383707686e-06
8.75015916253368e-06
2.497207337978138e-06
-7.251714699540735e-06
4.446846101865955e-06
-4.099952060979268e-06
-9.859550520748161e-07
5.873403615459065e-07
4.912789691859424e-06
-3.466045588423288e-06
2.039018153250861e-06
6.888835751604036e-07
-7.197053157038274e-07
-3.618101578233698e-06
-1.507122892235418e-06
-1.801138694804779e-06
-2.988072028604468e-06
-1.759365190915318e-06
-2.340620591153218e-06
-1.473762813062063e-06
2.902820766449291e-07
4.566896543997621e-06
4.081810954682734e-06
-8.748577715216352e-07
5.988246586505955e-06
6.273387273165951e-06
9.120843069267974e-06
-3.302768053114853e-06
-4.389998359162474e-06
-6.376704869862451e-07
2.995985013607079e-06
-1.916672307815621e-06
7.387830910446061e-06
6.036559936766206e-06
2.483540591894803e-06
8.656060063846557e-07
3.791668009370137e-06
6.94731898832941e-06
4.945929631680879e-07
-5.107653018067526e-06
-3.181032090114409e-06
1.479726810056759e-06
4.892768374400309e-06
4.885170307128331e-06
9.222916606220364e-07
6.931392844062639e-06
-6.074140183888153e-08
-6.109357084039315e-07
-2.615133546618853e-06
6.951774635965588e-06
4.162900565974569e-06
1.385660681905089e-06
8.743333985886938e-07
-3.041233843568542e-06
8.576167218469464e-07
-5.019760518026214e-06
8.634808503156306e-06
3.34867658125562e-06
7.49328608256207e-06
8.770971098350114e-06
3.833860385277962e-06
2.774768443462944e-07
-2.823862418130468e-06
-8.040504086444743e-07
-2.217738402554332e-06
-4.329643654600826e-07
3.713500741529867e-06
4.382934748336921e-06
1.876341126957032e-06
1.268214173910651e-06
-1.263777417011806e-06
6.383150388501922e-07
-5.92368477917709e-06
3.151453736851479e-06
6.79261113456328e-06
9.086676020068863e-07
3.4754963667082e-06
-3.934555858134385e-08
3.64182804693969e-06
-2.78279400827606e-06
1.004120055113162e-06
-2.191249714722356e-07
-5.1683930865932e-07
1.689935433551229e-06
5.969622720612782e-06
-8.288963867406436e-07
-3.70640111560097e-06
-8.346914810589054e-07
-3.812056252283127e-07
-4.585741834080967e-06
1.221152742344407e-06
6.000359991034245e-06
6.639620810344223e-06
-2.99849404761897e-06
5.935930231437588e-06
9.78915132001714e-06
6.995835250338751e-06
-8.052933463297233e-06
-6.875225394138101e-06
2.109711157939484e-06
4.288328175504787e-06
2.734864954800038e-06
5.630684701467336e-06
4.128365517312233e-06
1.216893970661905e-06
1.202108567616898e-06
4.513932678969211e-06
5.768435627773203e-06
-3.1373894043339e-06
-5.700838092290356e-06
-5.085224199383418e-06
3.062970011299821e-07
5.572080814175895e-06
5.414286105085525e-06
3.829228617954819e-06
4.96716541043227e-06
-2.481168880674885e-06
-3.340693714026749e-06
4.390800433922789e-07
8.729236904523951e-07
1.113172377110436e-06
-3.291459255962336e-06
-4.422329585779529e-06
-2.753185441202817e-06
1.952603975907125e-06
2.339486137260113e-06
-1.549396455188624e-06
5.246260490170923e-06
5.779483210620993e-06
3.264657984251781e-06
3.262724581517049e-06
-1.132366119353968e-06
-1.918598312213572e-06
1.249637636254669e-06
-3.087748318447023e-07
-4.535606610865289e-06
4.398107479760614e-06
-2.519508345069075e-06
1.057347362295643e-06
2.094095723691698e-06
-9.439424412039443e-07
-5.779322909388784e-06
-4.523792251213317e-06
3.761728716234174e-06
5.47917341086936e-06
4.639017953641882e-06
7.546754123764738e-07
2.506800586282691e-06
-4.731836103066271e-07
-2.128811396011503e-07
8.093791477728939e-07
-9.492637982995525e-07
7.932018789323162e-07
5.858137415434973e-06
-9.943131393232203e-06
1.338186018484371e-06
-2.21212657818446e-06
-7.183825008538046e-07
-9.927096549429295e-07
-3.832984535821192e-06
2.740549819892765e-06
4.32157391122208e-06
2.028846706832033e-06
-3.779763220556625e-06
4.540279049080421e-06
4.107549775191129e-06
-1.561449202034458e-06
-6.550914728333579e-06
-9.106826069278063e-07
-9.687206858061233e-07
2.842450505022234e-06
6.022959030916772e-06
4.51554067879104e-06
-3.870867137508367e-07
-1.539741954271953e-06
2.855068645042973e-06
4.53273025288294e-06
-1.536504646063741e-06
-3.842562694833984e-08
-3.808010668695109e-06
-1.331273495849379e-06
-8.14933843201893e-07
4.291582088186977e-06
3.381696388934073e-06
3.007518647443114e-06
3.854251286637437e-08
-2.402308678347693e-06
3.376391374902699e-07
2.037385696475286e-06
-3.923500837271011e-06
-7.456055450072066e-07
-1.500536652092545e-06
-2.505065240685475e-06
-1.595363167292055e-06
4.875451008008198e-07
1.259676332978674e-06
-3.242369526689661e-06
2.888254705568182e-06
-3.121190635401499e-06
-5.142310969896889e-06
3.400941268210421e-07
-2.170133103875152e-06
-1.085448601383465e-06
1.547403261789701e-06
2.008538381858211e-06
-4.991027532229136e-06
3.146420142509077e-06
-4.418931993128629e-06
-7.606448589041597e-07
1.59601293870419e-06
2.089403390019796e-07
-5.24241838781945e-06
-3.982060470821924e-06
1.903439601999049e-06
4.311589431767843e-07
5.555280118429405e-06
-5.59747834685444e-07
3.17880227956343e-06
-2.363783377967556e-06
4.368973022195732e-07
8.409755271982391e-07
-1.109495925807928e-06
1.169928947759602e-06
4.861812393497794e-06
1.093648216559583e-06
6.082321604151197e-07
3.163977580595646e-07
-2.006452803541438e-07
-9.053861380683985e-07
1.442318500379981e-08
1.644402365361569e-06
2.458995957053228e-07
-2.067914958617658e-06
-6.733596492827458e-07
2.991690057432188e-06
-2.251974271952518e-06
-4.049809630748787e-06
3.66673800156129e-06
1.313536026670752e-06
-1.597645392420484e-06
2.406367078471287e-06
5.869259369244989e-06
3.10051843174148e-06
-3.327361422647061e-06
-2.646830414270485e-06
3.052866551615444e-06
2.925143227197608e-06
-3.720675523216887e-06
1.205542783281803e-06
1.367991988100125e-06
1.40666741736501e-06
-9.307337071477637e-07
3.100137357884175e-06
8.898694027420972e-07
-2.03195010377525e-08
-2.7224932259594e-06
-1.464777663640768e-06
1.932257867687971e-06
1.837538046473078e-06
-4.903353158459421e-06
-7.512190106959838e-07
-5.447989031177582e-07
-1.616231989119231e-06
-1.309591986915234e-06
-6.22339124368241e-07
1.006098114763639e-06
-8.816296933299836e-07
5.293268767911858e-07
-4.868859234929969e-06
-5.035456441921249e-06
-2.447886063189548e-06
-3.239360993289865e-06
-6.041563864844216e-07
1.263845501411673e-06
1.942209002010809e-06
-3.626145485610952e-06
1.981864323630584e-06
-3.393764069942774e-06
-1.141429593327765e-06
9.392838731336292e-07
3.449235839275783e-07
-3.375553284949018e-06
-3.000206070966906e-06
5.623280040893687e-07
-2.853564049213745e-06
4.805958137045903e-06
-8.393916688818702e-07
3.148267464528729e-06
-2.612753626688385e-06
4.281162402446284e-07
6.505241567673832e-07
-8.038081147911275e-07
1.21853693806326e-06
3.604740944985426e-06
-2.256675749874312e-06
-9.435191425808133e-08
1.255604072398577e-06
6.187235241068588e-08
-3.197570917217672e-07
1.929950396181921e-06
1.381800596097495e-06
-2.254547958182368e-06
-3.506638792260528e-06
1.135315564943865e-06
1.2640348337927e-06
-4.364120050866706e-06
-5.438414521848209e-06
5.587251664827305e-06
1.619197676505464e-06
-1.159090996452512e-06
2.076125190009391e-06
3.55475914698393e-06
-2.888542140955156e-06
-5.422148190615412e-06
-1.928018433537702e-06
1.981292526204823e-06
-9.108675191031971e-08
-3.883267790308486e-06
1.622000404045484e-06
2.682823590565851e-06
2.278798814960665e-06
1.022721584168838e-07
1.449570243527203e-06
-1.275916745777731e-06
-1.688618956862347e-06
-3.156059749767111e-06
-2.770857686075926e-07
2.044763916779162e-06
1.066640085075634e-06
-4.541648980823217e-06
-4.310334900229051e-07
-4.481378017358704e-07
-1.241697705722694e-06
-1.121154454811532e-06
-7.574539674647753e-07
1.051997185363062e-06
8.607147695831945e-08
-4.594158814631641e-07
-3.883748223788317e-06
-4.046869767434565e-06
-3.632324896338137e-06
-3.326831284361971e-06
-8.787749326133168e-08
1.042125522077714e-06
6.857664918025599e-07
-2.768726494436422e-06
1.021550206180837e-06
-2.081712251537573e-06
-8.788752658963633e-07
5.380739301750668e-07
3.045744971658293e-07
-1.752369005574662e-06
-2.16703460297609e-06
-1.513574960690806e-07
-3.302635160774202e-06
3.263736989469861e-06
-8.329531167397921e-07
2.830512729423847e-06
-2.256890081027215e-06
2.734031739474327e-07
2.734579899062467e-07
-3.676347603287256e-07
1.151813791958521e-06
2.321130869480184e-06
-2.985654513064303e-06
-6.303311883444316e-07
1.492557654903012e-06
2.207078856151074e-07
4.432903492994439e-07
2.530854567518824e-06
1.419284847623048e-06
-3.016308743865643e-06
-3.250844301060602e-06
1.889591900443209e-06
-3.044487352078219e-07
-3.447926727924286e-06
-3.360140481708355e-06
4.931354697675643e-06
1.266045453956705e-06
-4.218960423509032e-07
1.510663191668177e-06
1.107391813794636e-06
-2.647117269689018e-06
-3.004457636409412e-06
-7.063935019101408e-07
6.095545326558902e-07
-1.639086069185595e-06
-4.958542214073224e-06
1.507758032947353e-06
2.677586218988135e-06
2.053934463816301e-06
1.051581295365357e-06
-3.7505889212272e-07
-2.531268620234108e-06
-2.101765470335267e-06
-2.411800716636186e-06
6.783496943895108e-07
1.42882371574333e-06
3.605753364666138e-07
-3.595368020695992e-06
-2.481397696865171e-07
-7.101987188428426e-07
-9.952999911353246e-07
-8.169670544321186e-07
-4.705831622362837e-07
1.011482513768029e-06
2.219157634519443e-07
-6.723593903427684e-07
-2.462388415640421e-06
-2.498695918334667e-06
-2.729264603717765e-06
-1.765188030007315e-06
6.022021583702578e-07
8.594083473750163e-07
-4.081424113273842e-07
-2.398685022727411e-06
1.004367785572444e-07
-1.198096196386203e-06
-5.288856001813567e-07
2.949557155066429e-07
2.092096818809848e-07
-5.514307687795105e-07
-1.492376236107157e-06
-5.678333089912849e-07
-2.471948874279923e-06
1.528866547841606e-06
-7.612324591142816e-07
2.339326213388206e-06
-1.708839387324734e-06
1.45559785273674e-07
-1.890370560869998e-07
6.71547608254734e-08
1.001293820488439e-06
1.053888763548223e-06
-3.030066659982404e-06
-8.104034146219818e-07
1.401340877492821e-06
4.062984281306177e-07
1.209746624845484e-06
2.429356569154875e-06
9.961385779500499e-07
-2.936224770294699e-06
-2.320370522821473e-06
1.959672646086819e-06
-1.532082497087407e-06
-2.393384229631754e-06
-1.5029481546393e-06
3.828201636612496e-06
8.787526020739472e-07
2.244825631414191e-07
8.219022233996215e-07
-6.509241013113315e-07
-2.054873884314178e-06
-1.685214399157715e-06
7.868733270952245e-08
-4.206064482875601e-07
-1.79760071489566e-06
-3.048511294701639e-06
1.214904865842782e-06
2.138865246773075e-06
1.547432931387889e-06
8.761545618154479e-07
-1.253567963421457e-06
-2.372823493025302e-06
-1.893321741447299e-06
-1.284034410896791e-06
1.145081904567493e-06
4.946504900269586e-07
2.129220704365194e-08
-2.425427814433569e-06
-2.70409784809022e-07
-1.0208961141969e-06
-7.283885641854171e-07
-4.030007189072512e-07
-1.00429902923959e-07
8.653051521858713e-07
9.879252074360242e-08
-5.726803709439978e-07
-1.236732034590372e-06
-9.567471372389714e-07
-3.765567916901344e-07
6.986072273521223e-07
1.286797570874594e-06
7.368908189568255e-07
-8.536755805821795e-07
-1.809506148831011e-06
-6.921748396937338e-07
-7.134042794102166e-07
-2.398569707115655e-07
1.247598009425906e-07
7.72998626776294e-08
2.553058826502503e-07
-9.257290260442173e-07
-7.742438239295567e-07
-1.30948616829043e-06
1.011792093340663e-07
-6.417825668444029e-07
1.783521945526463e-06
-1.204629164256048e-06
8.231150887851715e-08
-6.688819974429289e-07
4.863839814714376e-07
7.182633393468889e-07
-1.385675931753309e-07
-2.745850444406005e-06
-6.288540349024988e-07
1.151871729267648e-06
6.73694375271879e-07
1.803267439989637e-06
1.907304100245368e-06
2.48779821470896e-07
-2.437186461348532e-06
-1.126300385224052e-06
1.521634709470952e-06
-2.185059374231061e-06
-1.499295958653802e-06
-1.37368361755705e-07
2.590635825491797e-06
6.495187917511747e-07
5.995306869957005e-07
1.474435236480693e-07
-1.664262220745261e-06
-1.518398703981814e-06
-5.688486882730707e-07
4.059720654919724e-07
-1.081919483302949e-06
-1.763881075943746e-06
-1.234868176914491e-06
8.807792690585115e-07
1.441602573442853e-06
9.922046039862528e-07
4.249261447849628e-07
-1.55792784177846e-06
-1.910976459109086e-06
-1.321311965839815e-06
-1.911332454242788e-07
1.075099146651715e-06
-3.922563366831034e-07
8.414189215477999e-08
-1.327249080887889e-06
-4.563651833474938e-07
-1.212773786348477e-06
-3.866172535205203e-07
6.468134733798333e-08
1.938643144121426e-07
6.553513336868871e-07
-4.759172403592699e-08
-3.480201426162473e-07
-3.28922039738767e-07
1.598473934441464e-07
1.08507166976197e-06
2.237279425152164e-06
1.604748780078687e-06
4.783750689635592e-07
-8.392016813921324e-07
-9.971375345746313e-07
-1.113383039293778e-06
-4.672822029044232e-07
-4.084895504029825e-08
8.959452822630821e-09
-4.967372086054082e-08
7.159856014865702e-07
-4.61462950833961e-07
-7.650120531824402e-07
-3.257650699875331e-07
-7.766116976030442e-07
-4.482515264785665e-07
1.229366571969321e-06
-8.148023133721644e-07
3.838609549617669e-08
-1.061995573850627e-06
8.124090986144076e-07
2.885235136826617e-07
-1.125708090320504e-06
-2.14964283295956e-06
-2.027908608790391e-07
8.713199428304129e-07
9.679708528562809e-07
2.080121339510984e-06
1.074975712772974e-06
-3.497407105242446e-07
-1.718463878266355e-06
-9.462355382453142e-08
7.498216198411386e-07
-2.27521941493897e-06
-6.576892985950915e-07
6.281629085124901e-07
1.436118855027751e-06
5.480615062523589e-07
6.63187304399933e-07
-4.301239811480501e-07
-1.917401887749141e-06
-9.199704702904896e-07
1.881902510763373e-07
3.950419925413129e-07
-1.353222781775913e-06
-1.343591292877802e-06
4.837994642877731e-08
5.475310053483373e-07
8.366597452244583e-07
4.679575766725392e-07
3.632819761154245e-08
-1.588481584285955e-06
-1.419387229811825e-06
-5.258155146760179e-07
5.230893762539445e-07
6.186103825377721e-07
-9.241085633424577e-07
4.09741069290893e-07
-5.73731354021092e-07
-7.164440323670834e-07
-1.209267129648401e-06
2.144381165964845e-08
5.001695644100337e-07
3.687786981875844e-07
4.240005603062865e-07
-1.369229898289207e-07
-1.127493422110114e-07
1.913716367411712e-07
6.134115385309496e-07
1.330529098447508e-06
2.096683499501124e-06
1.261331937023403e-06
-7.608739029232508e-08
-7.518374734046144e-07
-7.984543238523672e-08
-1.139526080333738e-06
-3.238890874851254e-07
1.122959993710843e-07
-4.790904151457413e-08
-1.582306701968489e-07
1.063185845884996e-06
-1.403750146925464e-07
-7.033308199702852e-07
3.147010007524076e-07
-1.075150991672699e-06
-1.870628256777376e-07
7.24161414106222e-07
-5.278489482074906e-07
-1.693007958522774e-08
-1.246944022012342e-06
9.228236890496044e-07
-2.162179063701184e-07
-1.674680592655754e-06
-1.260988775233578e-06
2.600170263018517e-07
6.501242513334628e-07
1.161626235642395e-06
1.931133845429759e-06
1.84822163273277e-07
-6.340466750074967e-07
-9.343736873571062e-07
4.753157165469287e-07
-5.050696976367743e-08
-1.916137857348653e-06
2.579190609143538e-08
8.180060243225753e-07
5.54492272907374e-07
4.533678422996634e-07
4.874395515769292e-07
-7.668181230436001e-07
-1.684332846989895e-06
-3.589759763875455e-07
5.418515578929677e-07
2.732122020642766e-07
-1.252394444075182e-06
-7.256532304305328e-07
6.606685760768255e-07
2.904782780074792e-07
4.190477167230021e-07
1.013049967229725e-07
-2.642531110207625e-07
-1.320926673070566e-06
-8.027677000759488e-07
2.190920190886303e-07
7.271769204639377e-07
3.827179408081849e-08
-1.004628205666578e-06
7.708826796048223e-07
-2.550439914048817e-07
-9.513902041278939e-07
-1.015540661770654e-06
4.367139996239563e-07
8.15145863125437e-07
4.327997888903446e-07
2.024093499994939e-07
-1.619000813213587e-07
6.47776054218341e-08
4.144743476641399e-07
6.743586237482821e-07
1.085313358695752e-06
1.291344692167627e-06
6.428131551784616e-07
-4.448483522219473e-07
-2.47733994972981e-07
1.119190988436205e-06
-1.139003784228523e-06
-2.96324901545608e-07
2.566020175030737e-07
-6.25278847995474e-08
-2.43130695963038e-07
1.317809217349187e-06
1.148770993420328e-07
-6.706587764061168e-07
6.690968529085285e-07
-1.113540859305335e-06
4.932641247414579e-08
3.587612845995253e-07
-2.981252953498424e-07
-8.492471383886403e-08
-1.180599666065123e-06
7.40024133183294e-07
-6.199619157681156e-07
-1.554353092990168e-06
-2.841539626912562e-07
5.743384826059022e-07
5.129566201340284e-07
1.106000187499399e-06
1.380767385016245e-06
-4.500940696790889e-07
-6.440825395876063e-07
-2.483867480192686e-07
5.70470227738031e-07
-5.208802496270098e-07
-1.282530545871131e-06
3.928812856030881e-07
6.100965093532454e-07
1.758141162435896e-08
2.973058385106939e-07
2.222014355567015e-07
-8.027502885828968e-07
-1.232299266814574e-06
7.425854473042877e-08
5.76104462548302e-07
1.84077392834062e-07
-8.913898569208207e-07
-1.720146493919072e-07
7.799125918065578e-07
1.346509943268066e-07
1.59593780135746e-07
-8.929528765315648e-08
-4.118337084715318e-07
-8.439625556585096e-07
-1.610819156561199e-07
6.451540502937382e-07
5.208917426819331e-07
-4.066991532230858e-07
-7.290520692531352e-07
9.592119426179524e-07
-2.823394988727794e-07
-1.059192527461502e-06
-6.475318060713923e-07
8.064631095498633e-07
9.674203530057557e-07
3.934174778609663e-07
1.209407971730471e-08
-1.411102716017116e-07
1.760664303650408e-07
4.717778995314612e-07
6.180346011592039e-07
8.440505751526187e-07
8.892735770490365e-07
5.359199853049326e-07
1.081472895951022e-07
1.007846337401844e-06
2.418766973100627e-06
-8.473138400734678e-07
-2.466767040454077e-07
3.68492006640853e-07
-3.94157153257472e-08
-2.78219395939178e-07
1.436171509661591e-06
3.025203610317035e-07
-5.766660596375106e-07
8.184264340977169e-07
-1.044045173939066e-06
2.408214353448474e-07
1.545514006549629e-07
-1.759912558110565e-07
-2.251270094977944e-07
-1.110793417549994e-06
4.030316048754591e-07
-7.562341805256615e-07
-9.243236872222418e-07
5.732285249644109e-07
7.810563639050219e-07
4.440163530166837e-07
7.968244456577209e-07
6.683757359460155e-07
-6.894658702167632e-07
-4.547258876325507e-07
1.360955501681554e-07
4.12610459121708e-07
-5.247741302503346e-07
-6.188355082195167e-07
4.448096483474328e-07
2.843685259128914e-07
-1.926187481894565e-07
1.230790429362651e-07
1.585192006564179e-08
-6.298396153512082e-07
-7.254671183279404e-07
2.515065907379428e-07
4.632207191914277e-07
1.517484701655649e-07
-4.544342214895249e-07
1.727603000644255e-07
6.764240668605898e-07
7.317315403564261e-08
1.18497968473586e-08
-1.681079210045294e-07
-3.546819404742839e-07
-3.517256363006206e-07
2.626535509023726e-07
6.535478305531385e-07
1.370538441666577e-07
-5.696970038655052e-07
-3.185041114086327e-07
8.681774477406285e-07
-4.598352172748589e-07
-9.457941885078781e-07
-1.447883664859211e-07
1.072917363225098e-06
9.551206509619623e-07
2.698763842851969e-07
-1.256832551641505e-07
-8.982122646901368e-08
2.478769528374829e-07
4.676487015321126e-07
5.722782173346376e-07
7.323293848351823e-07
8.587934252881876e-07
9.173012833726016e-07
1.158898547572795e-06
2.197686008797706e-06
3.002888857239025e-06
-2.281700706511955e-07
-5.285059759980307e-08
3.890752673632656e-07
1.696072538708373e-08
-2.221516332233967e-07
1.397555194544383e-06
3.573534172256587e-07
-3.73282009614497e-07
7.904146393132462e-07
-7.353768810738065e-07
3.66240989312044e-07
4.320285321416417e-08
-1.895115746866324e-07
-4.560184496339096e-07
-1.025034595363167e-06
1.496456854430309e-07
-5.554950824111287e-07
-4.93944613115356e-08
1.258120196836542e-06
9.954728704911314e-07
3.959626209604509e-07
4.317399486858537e-07
7.828022853310082e-08
-6.917582115215565e-07
-2.462834665724037e-07
2.81424083030124e-07
2.649617561190289e-07
-3.174836498523773e-07
-1.576725474689242e-07
3.73059716882828e-07
1.226064029648169e-07
-1.841893996727828e-07
-1.817081067975862e-08