/*--------------------------------*- C++ -*----------------------------------*\
| =========                 |                                                 |
| \\      /  F ield         | OpenFOAM: The Open Source CFD Toolbox           |
|  \\    /   O peration     | Version:  v1812                                 |
|   \\  /    A nd           | Web:      www.OpenFOAM.com                      |
|    \\/     M anipulation  |                                                 |
\*---------------------------------------------------------------------------*/
FoamFile
{
    version     2.0;
    format      ascii;
    class       volScalarField;
    location    "0.00000026";
    object      nut;
}
// * * * * * * * * * * * * * * * * * * * * * * * * * * * * * * * * * * * * * //

dimensions      [0 2 -1 0 0 0 0];


internalField   nonuniform List<scalar> 
3500
(
6.061142774605727e-12
3.785033980026428e-12
3.411615132152449e-12
1.391543692589332e-12
2.000282694988688e-12
3.112352834919268e-13
5.902612903680758e-14
2.235192547868046e-51
5.238889209810539e-12
2.455857199003388e-12
9.058790957331466e-12
2.872569500414579e-12
7.805128511342059e-16
6.841050580503588e-12
2.593266928484279e-11
2.235192547868046e-51
2.235192547868046e-51
1.003563325414559e-15
2.235192547868046e-51
1.68338989386306e-11
3.104683524517122e-16
2.890981502340743e-12
2.235192547868046e-51
3.495161340413522e-12
5.004850615449154e-13
8.576449389619355e-12
8.958892603165481e-14
5.631818707804784e-12
2.944542701188419e-12
2.235192547868046e-51
2.235192547868046e-51
5.410598999159099e-15
1.053230960395897e-13
6.267215741741537e-13
5.673072082886442e-13
2.669489367706866e-12
9.631220386217718e-13
6.601335855142599e-12
1.016561195970527e-11
4.109927880410156e-12
3.04311181754477e-14
1.49970064569776e-15
2.235192547868046e-51
6.061661299469256e-13
6.341141603244567e-13
6.379672454267649e-12
4.715330180420851e-12
1.070997626742231e-12
1.015505224825393e-12
3.89608907685853e-12
7.252257578318191e-12
7.806938811193247e-13
2.235192547868046e-51
2.235192547868046e-51
1.68916095904118e-12
6.037476120227832e-12
2.202997615061871e-12
1.451809825794192e-12
5.382391129575369e-12
5.669214868191353e-12
9.915172159721874e-12
3.080678536302808e-12
1.723764813774496e-11
1.060977935449771e-11
1.452549196760342e-11
8.707567557975076e-12
3.074492735713e-11
4.653796397122406e-11
3.254987459586624e-11
8.111204405246148e-12
7.091518489824137e-10
4.270441156970986e-10
4.456155752996914e-10
1.531216100337919e-10
2.328246575415281e-10
3.367485592888457e-11
6.187715296223424e-12
2.235192547868046e-51
6.66386850947536e-10
2.940762355704453e-10
1.216407689942242e-09
3.488281994533632e-10
1.042657005613932e-13
8.319737516125287e-10
3.871861186810919e-09
2.235192547868046e-51
2.235192547868046e-51
5.131788319520923e-14
2.235192547868046e-51
2.002411839176142e-09
2.235192547868046e-51
2.878855552133939e-10
2.235192547868046e-51
3.695030933191901e-10
4.855354874579954e-11
9.658923567222745e-10
8.586385456000978e-12
6.290235256274766e-10
3.026013053410884e-10
2.235192547868046e-51
2.235192547868046e-51
5.07640075076366e-13
1.023991475674462e-11
6.721416176309185e-11
6.221536054184163e-11
3.08804381240904e-10
1.061313518042418e-10
8.731023977863596e-10
1.426819315140051e-09
5.136358883945897e-10
2.899370353716386e-12
1.053122438464123e-13
2.235192547868046e-51
6.990180896731172e-11
7.230687542969894e-11
9.019785890674488e-10
6.286684121989229e-10
1.229757699333139e-10
1.171438162354133e-10
5.156032196029145e-10
1.01681792358737e-09
8.744349424804138e-11
2.235192547868046e-51
2.235192547868046e-51
1.980315852567837e-10
8.236797238292888e-10
2.764973969384079e-10
1.789738197353722e-10
7.442970203798288e-10
7.483359123518325e-10
1.337674062126711e-09
3.475277784302499e-10
2.391128848779654e-09
1.291716894253133e-09
1.8296170090046e-09
9.303602946663496e-10
3.520823207913027e-09
4.901844206007176e-09
3.629690627461525e-09
9.88177199483578e-10
9.531066335738079e-09
5.207691881672627e-09
7.846303429508665e-09
1.572680079563332e-09
2.641068959784527e-09
3.54479655394712e-10
5.737903805675952e-11
2.235192547868046e-51
9.385443859035953e-09
3.752402447503926e-09
1.856656858420224e-08
4.623164988707568e-09
3.232928485270914e-12
1.271025597525363e-08
8.263667737842869e-08
2.235192547868046e-51
2.235192547868046e-51
3.227767126172662e-14
2.235192547868046e-51
3.023608201408131e-08
2.235192547868046e-51
2.843614544935645e-09
2.235192547868046e-51
4.439766876296185e-09
5.508234229780723e-10
1.307493276996466e-08
1.591947601744584e-11
7.975187581635152e-09
3.237150767926109e-09
2.235192547868046e-51
2.235192547868046e-51
4.356190272136701e-12
8.98534920961628e-11
8.169472381428586e-10
8.157084629700874e-10
4.391984463053027e-09
1.307419803506806e-09
1.730565446800287e-08
3.118650069972252e-08
8.93791301170408e-09
2.646684501380973e-11
1.542114089847979e-12
2.235192547868046e-51
1.015979463761887e-09
9.866402058389768e-10
1.967836635244973e-08
1.237049842495139e-08
1.716783973411271e-09
1.677596369467345e-09
1.020077350156801e-08
2.127833902939433e-08
1.13404024490181e-09
2.235192547868046e-51
2.235192547868046e-51
2.851834096398993e-09
1.633776895603964e-08
4.599753217364144e-09
2.677558202605565e-09
1.290070589254738e-08
1.116784806327881e-08
2.017205667363904e-08
3.501911151099055e-09
3.6593940664216e-08
1.364092934630662e-08
2.299280736810425e-08
9.168818094176082e-09
3.612846872081574e-08
4.725587361974973e-08
3.944388942587886e-08
1.378026646943859e-08
7.137018246780606e-08
2.704287596489722e-08
7.237298466638621e-08
6.517689598360269e-09
1.468931217589626e-08
2.162842731460954e-09
1.866951208129413e-10
2.235192547868046e-51
7.018875827428961e-08
3.066821423093849e-08
1.466216020641056e-07
3.635146705542314e-08
2.110372689207633e-10
1.465316867297716e-07
6.362203402921892e-07
2.235192547868046e-51
2.235192547868046e-51
2.235192547868046e-51
2.235192547868046e-51
2.216658350332053e-07
2.235192547868046e-51
1.001015517149273e-08
2.235192547868046e-51
3.261372999574994e-08
5.706581207615667e-09
1.014100663479645e-07
2.235192547868046e-51
4.861340741709968e-08
1.689775810548062e-08
2.235192547868046e-51
2.235192547868046e-51
1.208083534776227e-11
2.178141157411547e-10
6.337795782125473e-09
8.521575365468012e-09
3.812905920030275e-08
8.405867010618923e-09
1.819136966733153e-07
3.341187640120091e-07
9.017102030834453e-08
1.143806327402865e-10
1.011691467737342e-11
2.235192547868046e-51
9.778401699127734e-09
6.869547961537046e-09
2.265315614224811e-07
1.218559942578331e-07
1.458563876805809e-08
1.476833807150524e-08
1.073671589152512e-07
2.051483049204951e-07
8.556131752639987e-09
2.235192547868046e-51
2.235192547868046e-51
2.281238649886423e-08
1.575668826475442e-07
4.412297597102041e-08
2.203802130774358e-08
1.133692880534319e-07
7.512813204530906e-08
1.400046676129667e-07
1.460027298696743e-08
2.675965186469513e-07
5.499813943400133e-08
1.620287449044639e-07
5.400944070059436e-08
1.597569374656176e-07
1.801625982477809e-07
1.166424961696769e-07
9.598942078432669e-08
3.714051948177321e-07
3.898651750633469e-08
4.489840669505521e-07
1.526676409542619e-08
5.070870947598939e-08
1.285215631108682e-08
2.215263094274822e-10
2.235192547868046e-51
3.346156316471492e-07
2.408775207422786e-07
7.387198039977562e-07
1.559738785231992e-07
1.230552919115849e-08
1.182671239979509e-06
2.139397053274993e-06
2.235192547868046e-51
2.235192547868046e-51
1.245484144818891e-09
2.235192547868046e-51
5.498997014260844e-07
5.080195852143616e-12
1.816498321942353e-08
2.235192547868046e-51
1.907138065505021e-07
8.357807492166301e-08
3.431432985134636e-07
2.235192547868046e-51
1.228870655847851e-07
5.413074329038018e-08
2.235192547868046e-51
2.235192547868046e-51
2.465442686749932e-12
6.158809987634842e-11
5.622791273200797e-08
1.547273031409874e-07
2.411740247971015e-07
3.606559602541879e-08
1.245474313613162e-06
1.870978743868532e-06
6.420625999932027e-07
9.250511868277382e-11
2.235192547868046e-51
2.235192547868046e-51
9.302183617305009e-08
2.91765522646465e-08
1.777006241424479e-06
7.392892416241642e-07
8.906914723722712e-08
9.546429742342107e-08
7.627176622531418e-07
1.104737475211168e-06
4.567042306157731e-08
2.235192547868046e-51
2.235192547868046e-51
1.091618358133503e-07
9.292295553429083e-07
3.12925516375909e-07
1.228254025062935e-07
6.674293855538196e-07
2.45927578611596e-07
5.450937110879252e-07
3.552108859163693e-08
1.037318310520949e-06
1.551729444494233e-07
5.761761206263837e-07
2.281347748494348e-07
4.11982599354514e-07
3.670796724395491e-07
1.1211689024186e-07
4.589931416955556e-07
9.005319312787952e-07
1.811054420681769e-07
1.847530621653099e-06
7.159653279984062e-08
1.179441438459993e-07
5.796833465859686e-08
1.56330082924011e-09
2.235192547868046e-51
8.601179382284497e-07
1.301812812701424e-06
2.312052904812146e-06
4.398764931606225e-07
1.888533980492814e-07
2.849341715126852e-06
3.598121882178361e-06
2.235192547868046e-51
2.235192547868046e-51
4.949109523532329e-07
2.416721027702768e-10
6.24423081945479e-07
1.588274320869282e-07
2.962803768945411e-07
1.269842665294582e-11
1.001443779795944e-06
4.716845797999171e-07
4.565367636658463e-07
1.201320385005294e-09
1.175485918035214e-07
1.118704241864786e-07
2.235192547868046e-51
1.778589740948906e-09
6.880558166966036e-11
7.119296690519816e-10
4.477632534119326e-07
1.808460451420564e-06
1.295980483812087e-06
9.957885874388367e-08
4.844993292923501e-06
5.221713140424193e-06
3.28179617932433e-06
2.235192547868046e-51
2.235192547868046e-51
2.235192547868046e-51
9.988871129201462e-07
2.298895142751957e-07
6.462086194387979e-06
2.659532093915081e-06
3.536643083254922e-07
5.189205460533002e-07
3.226461263409167e-06
3.447735504697183e-06
1.530271546893561e-07
2.235192547868046e-51
2.235192547868046e-51
3.775070040436956e-07
3.518999633317081e-06
1.735282312290795e-06
5.317866414391941e-07
2.468023889417884e-06
4.028264732835584e-07
1.11851079781356e-06
1.396515764522742e-07
2.133543396071605e-06
5.234920963905861e-07
1.139274449017206e-06
6.109674499640555e-07
7.681873076249076e-07
7.265542085486979e-07
1.352733622511042e-07
1.662035516881971e-06
2.125669489885516e-06
1.962298061434518e-06
4.173293241066076e-06
4.637694722223331e-07
2.025239879968946e-07
1.850173535738817e-07
8.068614535703835e-08
2.235192547868046e-51
8.64696277629652e-07
3.664281893215647e-06
3.986712210452872e-06
1.222019191318664e-06
1.150233648953182e-06
2.555017950171325e-06
4.417595114473875e-06
2.235192547868046e-51
4.213890695237192e-08
7.256921209521384e-06
2.015552288044736e-06
2.247287334426103e-06
2.742048469930769e-06
3.143327893873823e-06
5.638631453093599e-08
3.167858408997689e-06
1.320473585107212e-06
1.670530555577595e-06
1.973472343207997e-06
2.221260416278728e-07
4.53681223300658e-07
9.681508697093037e-09
2.213810676587716e-07
1.157895581809961e-07
9.516615504104905e-09
2.567345721405882e-06
6.579184660193009e-06
4.765445120933347e-06
6.093386868156782e-08
1.129645784947924e-05
1.113956936559713e-05
8.556829832941594e-06
2.235192547868046e-51
2.235192547868046e-51
1.48972692514376e-07
5.949404361710935e-06
3.630167068232606e-06
1.208881197648641e-05
5.147217650536492e-06
7.51341956718057e-07
2.53208058072888e-06
7.210268741658606e-06
6.750590640272782e-06
2.291493518716249e-07
2.235192547868046e-51
2.235192547868046e-51
8.642831641774134e-07
9.174689540465313e-06
6.025099283410837e-06
2.047891333380868e-06
4.977815151812264e-06
3.84232224984501e-07
1.405299869445138e-06
1.299819998069128e-06
2.627763969064687e-06
1.526241606107188e-06
1.375700919044423e-06
1.080972594447176e-06
1.369435936388224e-06
2.245960618348832e-06
6.31683348197012e-07
3.137388129760847e-06
6.476825365624748e-06
6.341712969127665e-06
5.780846520473518e-06
1.176297885876887e-06
2.92948780410042e-07
7.200789046490317e-07
1.133106636628511e-06
1.616535809418463e-08
1.374726741879047e-07
6.915118661523732e-06
3.300053300937262e-06
3.27980624198052e-06
4.127366931960098e-06
9.214199034469311e-07
4.663141320229448e-07
2.235192547868046e-51
7.809341458781961e-06
1.723661632008678e-05
1.395338411036323e-05
9.014682037291734e-06
9.656090897999724e-06
5.757117698796663e-06
1.875111378179243e-06
7.317841630143367e-06
3.553403362604408e-06
7.064904932426344e-06
1.357933754430548e-05
1.549428878820175e-06
3.620491480945922e-06
1.068236965678524e-06
2.568754189267989e-06
2.334774261713815e-06
3.120239532529919e-07
8.717661291109792e-06
1.234672976719764e-05
9.001065539368223e-06
2.065596401625844e-07
1.851517470508206e-05
1.74046054513995e-05
8.906476825310462e-06
1.147918603265328e-07
3.771059814255246e-09
1.674451864454099e-06
1.405906301038089e-05
1.58180417995702e-05
1.659054864981844e-05
4.770756742126556e-06
5.554742084895803e-07
7.649745085713956e-06
1.336132249215365e-05
6.624717811196802e-06
4.188851396794165e-07
2.235192547868046e-51
1.032213869681464e-08
1.48632118202156e-06
1.650582695611465e-05
1.060688108038584e-05
5.427197394301102e-06
5.452908517347619e-06
6.019319497910073e-07
3.363800570228669e-06
6.082013786488538e-06
1.707866908626243e-06
2.486058683209409e-06
2.032139693979853e-06
2.211521990893792e-06
4.40606760768066e-06
6.424734713383058e-06
3.727961625890521e-06
2.85205050184662e-06
1.206407239471892e-05
8.628252388879354e-06
4.51127601833362e-06
1.539477015797884e-06
4.781793512677147e-07
3.516115417394809e-06
4.951892103369848e-06
6.216446445915903e-07
2.235192547868046e-51
1.052838429067111e-05
5.939842163797576e-07
5.842461850057929e-06
1.027959534903289e-05
1.030353433346228e-06
2.235192547868046e-51
2.235192547868046e-51
1.738839011168413e-05
2.381489750590563e-05
3.238837557063444e-05
1.604970600316757e-05
2.476244017894142e-05
6.841571886918826e-06
1.226702032556579e-05
1.631684807647e-05
1.021439327849799e-05
2.025440912415639e-05
3.089130515791123e-05
2.235192547868046e-51
1.404522225841207e-05
1.117227757020632e-05
1.085084700779617e-05
9.969307643301475e-06
8.280531637793662e-06
1.97261669050427e-05
1.392603828281038e-05
6.546851855945089e-06
3.995331174324227e-06
2.435496306081671e-05
1.311370730495375e-05
1.564088134471411e-06
1.368846202217331e-05
1.038760304438227e-05
2.887673810693416e-06
2.22689005845199e-05
3.101772248389092e-05
1.929649666777721e-05
7.885238549738829e-07
6.900360480807267e-08
1.70449500640455e-05
1.92377714697922e-05
4.681065481469201e-07
5.881950773280507e-06
4.433412710426492e-06
7.168555038911297e-06
3.414326478451953e-06
2.260369422746998e-05
1.198876526637423e-05
7.211544941324018e-06
2.992744404366255e-06
3.104737665718015e-06
1.23640323795913e-05
1.508253723937799e-05
9.359327287150871e-07
4.667154297208765e-06
6.074039533538957e-06
7.780075478513639e-06
1.297212719573024e-05
1.431254844320105e-05
9.708881444074345e-06
4.207837791442605e-06
1.604943344372868e-05
5.077761627036832e-06
7.805166576175021e-07
8.196463776048853e-07
1.308807967948284e-06
1.139973976442755e-05
1.179772412091972e-05
3.615924615642554e-06
2.235192547868046e-51
1.31206102226908e-05
6.27972194770834e-09
9.020299458797454e-06
1.929370299810858e-05
6.680147831011898e-06
2.235192547868046e-51
4.571622904877811e-08
2.455448045576785e-05
2.492225519557845e-05
4.971666520890458e-05
2.811386398844222e-05
4.3092137661325e-05
1.353871706949203e-05
2.967854522703482e-05
3.135893135145552e-05
2.560417506620987e-05
3.789812349058167e-05
4.624245524033685e-05
1.255009778783017e-05
2.80267405719407e-05
3.34655794449286e-05
2.788502078553265e-05
2.733651609872638e-05
3.289904731741221e-05
3.190546909166171e-05
9.643496781973303e-06
2.444565081293613e-06
2.347881307249869e-05
2.910030907221446e-05
2.401510257036523e-06
2.235192547868046e-51
4.682705308364272e-05
2.962297177659208e-05
9.564934838406964e-06
3.261908323777729e-05
4.165089081956003e-05
1.767617497413248e-05
2.235192547868046e-51
4.564200264936907e-07
2.655110199107524e-05
2.15065964041609e-05
2.235192547868046e-51
1.821871522464513e-05
2.707707447059412e-05
2.535330011836349e-05
1.132269791680036e-05
2.743419685634782e-05
9.990788231811438e-06
6.048890173808241e-06
2.060554956986285e-06
1.322449007160092e-05
2.64381130957885e-05
2.596910752705389e-05
2.741500991359079e-06
1.15964220348548e-05
1.561861049612861e-05
1.980047685422224e-05
2.751175310364e-05
2.74461988967833e-05
2.052547373356524e-05
1.065849019815153e-05
2.072617040930693e-05
3.869576655911366e-06
4.282625004271035e-08
4.838750053286283e-08
4.870013767116142e-06
2.524226330731957e-05
2.159231527370464e-05
9.554969606001216e-06
2.235192547868046e-51
1.659901866669047e-05
9.433586762976135e-07
1.723623651281993e-05
3.193033748978185e-05
2.467933180285108e-05
5.919744715762701e-06
9.457721533234393e-06
3.479079880853879e-05
3.04797677063093e-05
6.586388667708892e-05
4.732037995474746e-05
6.353753289952332e-05
3.325605921927832e-05
5.062051836476268e-05
5.079980951954905e-05
4.870342251414303e-05
5.806128940012902e-05
6.115975914876975e-05
2.369836032043875e-05
4.618882661461533e-05
5.744702107142589e-05
5.025660121613325e-05
5.165667475893441e-05
5.846883301412099e-05
4.8268362994666e-05
9.061239994091588e-06
6.524520722572383e-06
4.786742543732408e-05
3.455904515891611e-05
8.51778378334726e-07
3.276751006052164e-06
6.982467172777987e-05
4.903185251089606e-05
2.823416327380001e-05
4.522434150366116e-05
4.709839914418893e-05
7.796962731583611e-06
2.235192547868046e-51
1.06081830570669e-05
3.473791097877214e-05
2.036085975868946e-05
2.235192547868046e-51
3.36144650008376e-05
4.802429942354761e-05
4.409124942224484e-05
2.901412903188704e-05
3.119950573592002e-05
8.300243323119981e-06
8.114505125109101e-06
8.763189415997771e-06
3.21565876425616e-05
4.143745487886648e-05
3.832579275373882e-05
1.31818889323554e-05
2.556388483884425e-05
3.011293094741173e-05
3.681192734252278e-05
4.612330456613015e-05
4.559883816903023e-05
3.638330084156624e-05
2.368900288950793e-05
3.136402970487737e-05
9.100355542732726e-06
1.003971448579802e-07
2.235192547868046e-51
1.616509944888277e-05
4.348046971129965e-05
3.499054987396763e-05
1.878945617961326e-05
1.4552440637819e-06
2.238179123462152e-05
1.255511690446221e-05
3.326643675221416e-05
4.893673205748526e-05
4.900213623230308e-05
3.90828469274884e-05
3.720388223834129e-05
5.344880770050952e-05
5.141541986861134e-05
8.326250237125152e-05
7.202601963688728e-05
8.706636032688264e-05
6.208094363722393e-05
7.5013091772529e-05
7.39705088254971e-05
7.618639140796708e-05
8.131970189741256e-05
7.898623309336601e-05
4.74832205241107e-05
6.944419147803882e-05
8.248637616723356e-05
7.603149012035003e-05
7.93265661771351e-05
8.291138713381465e-05
6.873983296102758e-05
2.706441952751674e-05
3.347309122050813e-05
7.14542507876448e-05
4.491702094238837e-05
2.392456824364917e-05
3.615974430463196e-05
8.871302536622885e-05
6.876936757351121e-05
5.394077938833015e-05
6.019183204308046e-05
5.153703047055116e-05
1.85570261972051e-05
1.647877388996471e-05
3.74829053763656e-05
4.477189053920094e-05
2.743031473377622e-05
3.055014375991256e-07
5.158196066991306e-05
6.610998040440673e-05
6.123165460374584e-05
4.997099094861288e-05
3.755568455370254e-05
1.68181344926491e-05
2.297670613935684e-05
3.183165232497178e-05
5.412303255032587e-05
5.660467044733058e-05
5.310547958787743e-05
3.459777529564886e-05
4.430231226232161e-05
4.78309959320583e-05
5.67373041842673e-05
6.73836666277744e-05
6.707382535651942e-05
5.565297140703486e-05
4.106530267893498e-05
4.866368772492743e-05
2.48698884810603e-05
3.323023441602623e-06
1.088030107242177e-07
3.354158196876296e-05
6.440065241362072e-05
5.217583074473068e-05
3.376820882735961e-05
1.524097923572662e-05
3.22017641838988e-05
3.554120450739225e-05
5.451307767065361e-05
6.994075032082291e-05
7.614158385051335e-05
7.561908070705413e-05
7.173688858097377e-05
8.102676826565687e-05
8.426167134246628e-05
0.000105395043713472
0.0001022236904595645
0.0001154296599244913
9.604181846131239e-05
0.0001045706168887389
0.0001021636849599363
0.0001083485037961975
0.0001093779741932371
0.0001024850808594075
8.084590308142399e-05
9.912172066831146e-05
0.000110944904309791
0.0001062273232602765
0.000110580748961553
0.0001087363803576989
9.265271283263976e-05
6.075789594985875e-05
7.113072418250525e-05
9.607411780701955e-05
6.519659854970701e-05
6.117419176000288e-05
7.489481483410959e-05
0.0001081248476110695
9.144668289826133e-05
8.208042420317083e-05
7.899251289141196e-05
6.255623169661826e-05
4.898128618052445e-05
5.453981420879254e-05
6.733512739399793e-05
6.156032437939914e-05
5.011740265889134e-05
4.262047358520327e-05
7.304783273932992e-05
8.422304514599238e-05
7.92010530305881e-05
7.043550707454084e-05
5.425947883664463e-05
4.298076010827003e-05
4.998039227208087e-05
6.166839399714221e-05
7.641515196442514e-05
7.301135060877213e-05
7.131240067926505e-05
6.02243511360546e-05
6.535446617635404e-05
6.809652016174321e-05
7.913499358807411e-05
9.13260846705868e-05
9.136139164285853e-05
7.759107502176679e-05
6.125153344117876e-05
7.082053246633277e-05
4.94547847777956e-05
2.26452382428746e-05
1.015528997454434e-05
5.25483516303023e-05
8.419615840842303e-05
7.289759269664887e-05
5.647380285248844e-05
4.34304167078554e-05
4.758248790863384e-05
6.051220687526953e-05
7.858941097476635e-05
9.505058517289455e-05
0.0001073707380243204
0.0001145356933911007
0.0001111955831912907
0.0001174737713927453
0.0001253872769413187
0.0001364900548399498
0.0001399642535724261
0.0001509758143923682
0.0001365828512254858
0.0001416573250927665
0.0001377977006927354
0.0001472594800726106
0.000144499024249354
0.0001345656676805274
0.0001222763703301785
0.0001370100497838139
0.0001454619804042442
0.0001427525783341573
0.000146795213351674
0.0001386398910257347
0.0001221608373990608
0.0001015217394162312
0.0001121014494203212
0.0001246645349666871
9.658950850381485e-05
0.0001014559159557743
0.0001138068174978492
0.0001315180079966304
0.0001195529238601026
0.0001135003070111542
0.0001040205045037837
8.659458001160743e-05
8.455468010722407e-05
9.239931138488266e-05
9.902376322734058e-05
8.72776498181442e-05
8.12517634600185e-05
8.341239054853932e-05
9.891908904386303e-05
0.0001056807820208011
0.0001009347618633429
9.407403229798565e-05
8.080554397522123e-05
7.564018561061923e-05
8.199637819067594e-05
9.245772954820204e-05
9.940480933672944e-05
9.243818543123246e-05
9.361091480916949e-05
8.730854758069277e-05
8.846757311486372e-05
9.135365625621433e-05
0.000104672931031712
0.000118682151587658
0.0001190002330233509
0.0001027037047359395
8.440748429015174e-05
9.720435638130832e-05
7.763162533782268e-05
5.20510757126289e-05
3.833617542458182e-05
7.006655398825118e-05
0.0001003466496009384
9.653181160482149e-05
8.623446066344454e-05
7.784535218242668e-05
7.081085877078358e-05
8.758195608798298e-05
0.000106618727706295
0.0001252656526855914
0.0001448109923488214
0.0001596701969403626
0.0001581855984202677
0.0001641826448487403
0.0001759945656372663
0.0001805213356269764
0.0001881029451381777
0.0001965292675950668
0.0001865112182722411
0.0001888997049898734
0.000183935704655112
0.0001952828799404578
0.0001895104628296784
0.0001786380485897403
0.0001741804737221842
0.0001850743681910903
0.0001888541547846893
0.0001875484657501878
0.0001895821531251651
0.0001758024894022602
0.00016135871475082
0.0001498821148881125
0.0001587834510225094
0.0001607970769239536
0.0001392064762057429
0.0001474304408919328
0.0001566977610299044
0.0001626644584588034
0.0001553913672298151
0.0001506742203216028
0.0001381071527159078
0.0001237977792154243
0.0001268069804183157
0.0001344084713485149
0.000135923299633282
0.0001229095623946289
0.0001204694962173765
0.0001266267371059238
0.0001316705857276626
0.000134266125497652
0.0001298929909253918
0.0001250303183720503
0.0001154145451847541
0.0001125718840566524
0.0001183765613730296
0.0001256335809369705
0.0001259874897480487
0.000118285151756703
0.0001218357983170944
0.0001175556238708425
0.0001158063763153401
0.0001194619989553537
0.0001342368540962031
0.0001502870621146138
0.0001508402490575251
0.0001320013363850553
0.0001115604802374679
0.0001284839138408253
0.0001090001216752505
8.170291714994666e-05
6.639870496269812e-05
8.523544078095479e-05
0.0001127712218585234
0.0001195568953216107
0.0001214345020133874
0.0001186584188155683
0.0001033209088552043
0.0001200846247331062
0.0001413719570518171
0.0001626262169430173
0.00018719953837027
0.0002111618504391933
0.0002125409701258791
0.0002203926505192691
0.000237239079266337
0.0002391685838284648
0.0002494155197096849
0.0002553216400271425
0.0002488682998018409
0.000249188126163467
0.000243928360991907
0.0002550773667689763
0.0002478737621863803
0.0002383970219725964
0.0002391924980847856
0.0002453127817508279
0.0002441181007176326
0.0002426671794604011
0.0002411963864737276
0.0002244872884517348
0.0002136565032784892
0.0002083294620400277
0.0002138563703550372
0.0002088131210730921
0.0001945758870469239
0.0002022796688678427
0.0002070394585142839
0.0002055979835302338
0.0002015090288493688
0.0001968993285501865
0.000184431093966906
0.0001739823238860612
0.0001783593073008923
0.000183688146018859
0.000181855191170456
0.0001703602900672852
0.0001697899007732054
0.000175359588733808
0.0001741158665193364
0.0001734967993669633
0.000169316638949218
0.0001655284777809131
0.0001592390832471195
0.0001564151346218058
0.0001612030481743661
0.0001640444283245642
0.0001598652547303277
0.0001536552909097493
0.0001581373392442224
0.0001538954472565318
0.0001505790532560995
0.0001554832650001295
0.000170903922573684
0.0001869221440248889
0.0001878116820817256
0.0001665892258050172
0.0001439497123459507
0.0001657770345349522
0.0001451678133962158
0.0001141127083173327
9.458012988268065e-05
0.0001011170334968104
0.0001233334501955098
0.0001399723400462982
0.000157913953833759
0.0001652136115934317
0.0001425859053482106
0.0001578890991442255
0.0001817291786854502
0.0002049787717343069
0.0002336475337698961
0.00026556607673445
0.0002719056566013764
0.0002831344229620153
0.0003060512393787297
0.0003083553161619562
0.0003225404333801544
0.0003280978287332885
0.000324777169163362
0.0003240873550573
0.0003194607681421651
0.0003294522576262454
0.0003227836515847112
0.000316433961907254
0.0003193460678519682
0.000319991720220585
0.0003143669197902198
0.0003106784532807379
0.0003052260092184476
0.0002891534661740649
0.000281703517293718
0.0002793690390641324
0.0002807475005236268
0.000273044324639475
0.0002644381622214988
0.0002689095654104328
0.0002689494378866871
0.0002641282682876794
0.0002611465064434367
0.0002562227368007863
0.0002458110555141652
0.0002383437397007118
0.0002417720190378376
0.0002439815599825116
0.0002405607136672108
0.000231549594543423
0.0002311397995458565
0.0002336700462608807
0.0002290901972254912
0.0002257681851887917
0.0002208527701317095
0.0002173150122652336
0.0002133214663255781
0.0002104584706736477
0.0002121746840449546
0.0002103808962251241
0.0002040872221529256
0.0002001705666707941
0.0002038120977696499
0.0001986457290385076
0.000195095671833997
0.000201350481995028
0.0002164421621626187
0.0002306794567780616
0.0002309329589129879
0.0002075276585295644
0.0001827679737022861
0.0002103052794225779
0.0001879551932211962
0.0001534279604750951
0.0001273218092818044
0.00012245025834466
0.0001367244345171925
0.0001590948269542079
0.0001905573209179793
0.000210772831736524
0.0001869671381027873
0.0001982224087390388
0.0002233698273381329
0.0002486369969452905
0.0002811543499917068
0.000320205695827739
0.0003330193883781193
0.000348875954838504
0.0003768625351546505
0.0003821434031740074
0.0004001942592884872
0.0004070610107450692
0.0004073810886295107
0.0004073829705757119
0.0004050456485608888
0.0004154548874516021
0.0004115417701814928
0.0004100954680649131
0.0004143063351138243
0.0004107356595186355
0.0004015187518279807
0.0003943594292808644
0.0003855622957212151
0.0003714875510486474
0.0003659529585975663
0.0003646029320734042
0.0003629790114097644
0.0003553378505280252
0.0003495669009214868
0.0003502356211093377
0.0003468304421378721
0.0003408670604004152
0.0003372732513615882
0.0003319829710523988
0.000323547396666062
0.0003178130244639883
0.0003191365627904009
0.0003188258358850491
0.0003148585316862507
0.000307815146870945
0.000306225916889597
0.0003053276911714605
0.0002987520531634317
0.0002926991046222552
0.0002860335881929818
0.0002822356811141539
0.0002793742926606296
0.0002759764731101483
0.0002730772027468232
0.0002673690848790527
0.0002607835260523787
0.0002584418582894095
0.0002597074737234114
0.0002535382917734552
0.0002506886679558815
0.0002578113293946054
0.0002714182173442961
0.0002826182501084542
0.0002808470393713044
0.000255672695572239
0.0002290674626400903
0.0002632580028369229
0.0002391389143184823
0.0002017953163419225
0.0001681854140144327
0.000153080691486861
0.0001576326604861155
0.0001786485315077705
0.0002150802795765574
0.0002455929565661176
0.0002329988644507759
0.0002397105700416293
0.0002635029270626491
0.000290580538558981
0.0003264506015652521
0.0003713792968484295
0.0003918594543256091
0.0004138698829170985
0.0004449379685207928
0.000455417187681258
0.000475819426302625
0.0004846746688741374
0.0004886204679415058
0.0004907677162225307
0.0004926768553193514
0.0005039208609761774
0.0005053109555263619
0.0005093098840392543
0.0005142919037313305
0.0005085507427555248
0.0004969343278862097
0.000486855343707318
0.0004759364586747884
0.0004641589152190753
0.0004602837953927968
0.0004596655099799764
0.0004570676085900953
0.0004505798393069639
0.0004462060437347866
0.0004443954375492045
0.0004392886531823602
0.0004326468631373429
0.0004277593572624717
0.0004221639091620862
0.0004152678371689725
0.000410640269709283
0.0004101767404540558
0.000408464296474534
0.0004043409516284244
0.000398418287230824
0.0003951576152160044
0.0003912276251579595
0.0003829646459676775
0.0003743271163172112
0.000365426446111542
0.0003607803514337607
0.0003582279682324539
0.0003539733549264621
0.0003460382056781547
0.0003372873805620977
0.0003308693425585104
0.000328392294213524
0.0003263725578171076
0.0003195118758096784
0.0003175074488562924
0.0003243809309964096
0.0003353353265977431
0.000342622314940125
0.0003375786395454517
0.0003115820585355807
0.000283704215704705
0.0003257048763664417