/*--------------------------------*- C++ -*----------------------------------*\
| =========                 |                                                 |
| \\      /  F ield         | OpenFOAM: The Open Source CFD Toolbox           |
|  \\    /   O peration     | Version:  v1812                                 |
|   \\  /    A nd           | Web:      www.OpenFOAM.com                      |
|    \\/     M anipulation  |                                                 |
\*---------------------------------------------------------------------------*/
FoamFile
{
    version     2.0;
    format      ascii;
    class       volScalarField;
    location    "0.00000026";
    object      nuTilda;
}
// * * * * * * * * * * * * * * * * * * * * * * * * * * * * * * * * * * * * * //

dimensions      [0 2 -1 0 0 0 0];


internalField   nonuniform List<scalar> 
3500
(
7.216237285342516e-07
6.414892030024638e-07
6.250458347453859e-07
4.995118310459836e-07
5.469460702333434e-07
3.435133102405328e-07
2.266900032976432e-07
1e-16
6.957959328718832e-07
5.757348325101164e-07
7.97884552498041e-07
5.98741583990562e-07
7.687166370065003e-08
7.43794501937878e-07
1.037852852098803e-06
1e-16
1e-16
8.185730865609557e-08
1e-16
9.315783902030861e-07
6.104858463336871e-08
5.996987124603136e-07
1e-16
6.288378515855537e-07
3.868291425296689e-07
7.870445758851778e-07
2.516140487376077e-07
7.084909292430301e-07
6.024572840880007e-07
1e-16
1e-16
1.247333557409667e-07
2.620005558385459e-07
4.092042091919829e-07
3.991406815470339e-07
5.87866627750771e-07
4.556085069709361e-07
7.371912881580732e-07
8.212133309706388e-07
6.548329082509239e-07
1.920882321612267e-07
9.050496634253713e-08
1e-16
4.058068218512878e-07
4.104056163545808e-07
7.309233026185141e-07
6.777196023833386e-07
4.678629344986605e-07
4.616810448388316e-07
6.461437366539584e-07
7.547282621378956e-07
4.323063897681535e-07
1e-16
1e-16
5.243114878645741e-07
7.209182678794571e-07
5.603059036517747e-07
5.048344805536376e-07
7.005125375117203e-07
7.096641416879081e-07
8.161080256286358e-07
6.093031304678595e-07
9.371147309641181e-07
8.300404184538629e-07
8.978540251077508e-07
7.90035623718045e-07
1.082973213903699e-06
1.201233169953578e-06
1.098529722223805e-06
7.761465581598062e-07
2.373496081706931e-06
2.090795846530232e-06
2.113169108160327e-06
1.61785897661811e-06
1.796563530556265e-06
1.107901120351085e-06
7.253619525363181e-07
1e-16
2.336866135635376e-06
1.904596635573328e-06
2.716374749796989e-06
1.987665122884643e-06
2.613404740314598e-07
2.470217789015087e-06
3.628834119053417e-06
1e-16
1e-16
2.188963266959948e-07
1e-16
3.077019826665013e-06
1e-16
1.894491815682877e-06
1e-16
2.016488183256746e-06
1.214034005230316e-06
2.564155468044284e-06
7.872724322966827e-07
2.303390868925778e-06
1.918253912765455e-06
1e-16
1e-16
3.882043358284982e-07
8.227098585544173e-07
1.316867269070931e-06
1.291667999046723e-06
1.928011053684715e-06
1.476182304682875e-06
2.500204208658496e-06
2.826951273535031e-06
2.189578789538803e-06
6.001332825678418e-07
2.619938066271273e-07
1e-16
1.329839031963125e-06
1.341133520285315e-06
2.520630463478592e-06
2.303065640308161e-06
1.531563016161422e-06
1.513071716004332e-06
2.191672788309973e-06
2.59731471880221e-06
1.406403347803276e-06
1e-16
1e-16
1.725310810830083e-06
2.464036624546819e-06
1.875469624241106e-06
1.682209934985134e-06
2.40237875178248e-06
2.405631996854858e-06
2.781704960998831e-06
1.985809794802013e-06
3.216642154187545e-06
2.75749016279798e-06
3.008343091251025e-06
2.540234610909421e-06
3.543563746412e-06
3.849457108813232e-06
3.570664879005043e-06
2.578823292893751e-06
4.546576276437479e-06
3.908205180398673e-06
4.330464083047384e-06
2.896612002945023e-06
3.297639610789082e-06
1.995668399620089e-06
1.265798283376015e-06
1e-16
4.52908212001305e-06
3.600491839692588e-06
5.373162736157539e-06
3.793486243809662e-06
6.166956122003138e-07
4.886440566437007e-06
7.818404824684717e-06
1e-16
1e-16
1.949381459997042e-07
1e-16
6.072179905531031e-06
1e-16
3.359161589893305e-06
1e-16
3.755257713534524e-06
2.228184804863951e-06
4.921188270845731e-06
9.186611246180623e-07
4.348162985839568e-06
3.469871049838164e-06
1e-16
1e-16
6.644291640382645e-07
1.415995570327349e-06
2.458984800968409e-06
2.458051869841099e-06
3.745103854434884e-06
2.765835615932942e-06
5.279280824063508e-06
6.11952421203051e-06
4.474014778994949e-06
1.043156727145788e-06
5.125080812855246e-07
1e-16
2.596778964743344e-06
2.577819655034293e-06
5.452066110338428e-06
4.853389587920338e-06
2.960827802336679e-06
2.943777798691072e-06
4.624548046315977e-06
5.559964404370187e-06
2.669159464827295e-06
1e-16
1e-16
3.361587944644014e-06
5.203683480051575e-06
3.788670139069053e-06
3.308978047207666e-06
4.904679001994114e-06
4.730643889715621e-06
5.486037458614305e-06
3.538792032988181e-06
6.370141369508156e-06
4.97370975988496e-06
5.669053014585483e-06
4.502678288007584e-06
6.349699590127048e-06
6.792711722269865e-06
6.491244319633316e-06
4.986388767365025e-06
7.535008677022897e-06
5.904496893347655e-06
7.561528123743002e-06
4.133957408650206e-06
5.066836073729515e-06
3.136912360215455e-06
1.700068539373843e-06
1e-16
7.503407957129854e-06
6.093841866645596e-06
9.036429755620223e-06
6.35951719264163e-06
1.75296855642023e-06
9.035026979410817e-06
1.315094817994029e-05
1e-16
1e-16
1e-16
1e-16
1.003508674984581e-05
1e-16
4.602754934197797e-06
1e-16
6.188637886730015e-06
3.998713802916237e-06
8.232604611661748e-06
1e-16
6.841235683350342e-06
5.247817261378393e-06
1e-16
1e-16
8.574267645689657e-07
1.766876341305256e-06
4.105098475418288e-06
4.420900310482331e-06
6.4362129650399e-06
4.405794538390185e-06
9.543926333151576e-06
1.114171931716975e-05
7.992266038749631e-06
1.504068602813581e-06
8.202280663957632e-07
1e-16
4.575836514788277e-06
4.188721759763252e-06
1.009063886140541e-05
8.623392852984336e-06
5.057852742483487e-06
5.073651898211589e-06
8.352065861687978e-06
9.839564262386478e-06
4.425381872184934e-06
1e-16
1e-16
5.657865203927981e-06
9.202643274613746e-06
6.676630800799518e-06
5.609082647197194e-06
8.467566048996084e-06
7.633010247609906e-06
8.931457068074081e-06
5.059123690347342e-06
1.052777992994979e-05
7.056799241434548e-06
9.267961633750544e-06
7.024682199991667e-06
9.234872025124756e-06
9.520542863974139e-06
8.528656538326846e-06
8.119295624365822e-06
1.144759418210537e-05
6.472258597464524e-06
1.201884257916414e-05
5.116023059025145e-06
6.914186956957163e-06
4.900048880413047e-06
1.774357591656259e-06
1e-16
1.114595454389323e-05
1.024949404235775e-05
1.367168935812703e-05
9.178992669252734e-06
4.846992362621742e-06
1.547110908619223e-05
1.814938204203309e-05
1e-16
1e-16
2.732469454070723e-06
1e-16
1.266374535477046e-05
6.904658086835203e-07
5.343794079755915e-06
1e-16
9.65899623153162e-06
7.840755337273811e-06
1.12179406122868e-05
1e-16
8.641772342084042e-06
7.028646039075506e-06
1e-16
1e-16
5.762958034056227e-07
1.288399822453113e-06
7.096153290607416e-06
9.160360841227885e-06
1.025270329838349e-05
6.346923427156476e-06
1.568511788376596e-05
1.749714401598936e-05
1.318217338616439e-05
1.426329116383801e-06
1e-16
1e-16
8.055242037562993e-06
6.018072556055687e-06
1.725417402177855e-05
1.36744345724793e-05
7.967529313647475e-06
8.108069067730906e-06
1.378610624729152e-05
1.51943389984364e-05
6.734708566882545e-06
1e-16
1e-16
8.38709157141513e-06
1.451724026096533e-05
1.095664402904134e-05
8.640676371010967e-06
1.33154520713519e-05
1.030376409462757e-05
1.263505435382121e-05
6.322728274276745e-06
1.494377209175017e-05
9.167034245287304e-06
1.281751420149444e-05
1.010875112236292e-05
1.175612283763275e-05
1.141328693278057e-05
8.443846238792453e-06
1.208720952150414e-05
1.439820673674624e-05
9.53315389371798e-06
1.74372931318182e-05
7.541018661114736e-06
8.552597995216486e-06
7.150768516228613e-06
2.892281802422462e-06
1e-16
1.422597603613991e-05
1.587086955196127e-05
1.854092806857474e-05
1.195567127452967e-05
9.635000133931571e-06
1.965016963711971e-05
2.09943331808134e-05
1e-16
1e-16
1.23240403975806e-05
1.813394798331486e-06
1.308726672697762e-05
9.221233485493511e-06
1.080477659792773e-05
8.681811087640425e-07
1.480579865425513e-05
1.217236999666678e-05
1.20705315612017e-05
2.707909551118946e-06
8.545343288458134e-06
8.439155227129966e-06
1e-16
2.987135177750989e-06
1.324594118714515e-06
2.375817503010447e-06
1.201042884046746e-05
1.73364338124071e-05
1.585189913598182e-05
8.1948395527387e-06
2.289844521822054e-05
2.341631320531232e-05
2.044990862118622e-05
1e-16
1e-16
1e-16
1.479583505744184e-05
1.012846863724772e-05
2.498910708683925e-05
1.927494194800156e-05
1.130498386559438e-05
1.247553615994685e-05
2.035139571687562e-05
2.073932763318401e-05
9.134770497112616e-06
1e-16
1e-16
1.149550052107568e-05
2.086099680500852e-05
1.71435414490924e-05
1.255465530179285e-05
1.887861295021775e-05
1.168849491149522e-05
1.524421445402169e-05
8.925753490229409e-06
1.813575106448972e-05
1.250380820932303e-05
1.531860531395491e-05
1.301357701773867e-05
1.381182702251647e-05
1.361267852425041e-05
8.854130632414723e-06
1.694493386914136e-05
1.811737695664861e-05
1.772560005510489e-05
2.191433445178822e-05
1.211945585537013e-05
9.807445495813013e-06
9.584967717518003e-06
7.771487388034275e-06
1e-16
1.424576919455543e-05
2.11044633113857e-05
2.162470747294096e-05
1.560608077907514e-05
1.535749162095555e-05
1.906100636162437e-05
2.228224045267397e-05
1e-16
6.599902536726626e-06
2.591387027580386e-05
1.78555930070253e-05
1.839636384160209e-05
1.944008823736488e-05
2.020140439889433e-05
7.101175619204567e-06
2.024591661893473e-05
1.593117757150914e-05
1.69682654837147e-05
1.775306783604819e-05
1.004037899645029e-05
1.205106190021398e-05
4.564440622676532e-06
1.003180796895004e-05
8.512860908388602e-06
4.5448492231147e-06
1.908652871573263e-05
2.512889271332022e-05
2.278619800005829e-05
7.241082044062424e-06
3.000509762466794e-05
2.985952442991402e-05
2.732352463843221e-05
1e-16
1e-16
9.072886112578094e-06
2.436076363502209e-05
2.104782778848751e-05
3.072859072005889e-05
2.331561934024503e-05
1.373219174155221e-05
1.901330778029453e-05
2.586106385710986e-05
2.533119448905492e-05
1.012016513577122e-05
1e-16
1e-16
1.424398624313478e-05
2.79577991760159e-05
2.445530283072901e-05
1.793342935431734e-05
2.308354838675739e-05
1.154765547075972e-05
1.619820427223859e-05
1.586439422631102e-05
1.921049169588246e-05
1.656055580474267e-05
1.610631200140199e-05
1.51072591328917e-05
1.608668922148715e-05
1.839337428249609e-05
1.312655798951492e-05
2.019059383875968e-05
2.500677431210522e-05
2.484402193342439e-05
2.414788584610944e-05
1.544895690593625e-05
1.077363660510315e-05
1.358098323739311e-05
1.52966062879174e-05
5.189867965440555e-06
8.89031952490905e-06
2.552290061018304e-05
2.0482186312631e-05
2.044638381300558e-05
2.184376764600235e-05
1.448510505678254e-05
1.2136537925734e-05
1e-16
2.652677238288466e-05
3.508782665757474e-05
3.236571846311346e-05
2.779546423795748e-05
2.843871834556762e-05
2.411764915799578e-05
1.750764070608145e-05
2.598257100289121e-05
2.091919588814763e-05
2.569541131716713e-05
3.20437211096308e-05
1.66277804088101e-05
2.103170618588039e-05
1.506004512617999e-05
1.908943968134853e-05
1.859102047827369e-05
1.094857107233123e-05
2.749060187305128e-05
3.096017524056825e-05
2.778158962641189e-05
9.856712878400149e-06
3.610910226888247e-05
3.522302676344501e-05
2.768494277353425e-05
8.494274857193046e-06
3.604962534732624e-06
1.697900846624583e-05
3.245617147630301e-05
3.393193653921271e-05
3.456468444371236e-05
2.279372624401093e-05
1.269680006676282e-05
2.635196290813644e-05
3.185466446967241e-05
2.518289715316338e-05
1.180639041762491e-05
1e-16
4.638265234638805e-06
1.644317906880857e-05
3.449568968953362e-05
2.935897976818865e-05
2.368997549650687e-05
2.372380978880903e-05
1.296344157096929e-05
2.059403243581967e-05
2.452596737566057e-05
1.706987567745731e-05
1.891676075938559e-05
1.789561896816809e-05
1.831536560524521e-05
2.226515240387025e-05
2.494424064090378e-05
2.120933254557848e-05
1.965540814910519e-05
3.070628055353819e-05
2.739789931875089e-05
2.242015773248756e-05
1.659901190755079e-05
1.221531320128231e-05
2.085610197816396e-05
2.304764385061668e-05
1.307214411656623e-05
1e-16
2.928435873948327e-05
1.29188955467483e-05
2.422608662368066e-05
2.904630887483372e-05
1.491724811519417e-05
1e-16
1e-16
3.520999065125367e-05
4.020689991722485e-05
4.66560008591276e-05
3.412256935877658e-05
4.092503899050967e-05
2.54374975248924e-05
3.088879770947937e-05
3.434144615893951e-05
2.89835226706591e-05
3.747386082775021e-05
4.553216209545095e-05
1e-16
3.244433756652497e-05
2.988994053666534e-05
2.958946206948217e-05
2.87459810505605e-05
2.703302950513778e-05
3.706194170619089e-05
3.234227591942119e-05
2.509042629872707e-05
2.163826184390479e-05
4.061655876107913e-05
3.163864751699742e-05
1.666993016918646e-05
3.213796380261872e-05
2.914994703630712e-05
1.972400958579223e-05
3.902807200075946e-05
4.562700827656283e-05
3.672529838197058e-05
1.390633862636874e-05
7.471307903371465e-06
3.49331647130071e-05
3.667917026444293e-05
1.214852997542592e-05
2.427597041693892e-05
2.230564575858307e-05
2.58137019450678e-05
2.068175807501017e-05
3.92842258071773e-05
3.063826234238072e-05
2.586251068179858e-05
1.992329618764891e-05
2.013094017921443e-05
3.09756467306934e-05
3.332127267825559e-05
1.454467203759597e-05
2.264601106617654e-05
2.451608799550351e-05
2.649484827480225e-05
3.151449514630434e-05
3.267223868091767e-05
2.849080540120613e-05
2.196711132108828e-05
3.41223455302013e-05
2.322099758273346e-05
1.386933405860153e-05
1.404769971687543e-05
1.589354552573373e-05
3.010049406308678e-05
3.046498186169171e-05
2.102408772086692e-05
1e-16
3.16446886654446e-05
4.095651246199287e-06
2.780118536760603e-05
3.672310463469325e-05
2.524838028253977e-05
1e-16
6.736405240570615e-06
4.0767664484529e-05
4.104589705817678e-05
6.000937516991497e-05
4.344863315311766e-05
5.480433466257088e-05
3.200857494630299e-05
4.462250736405459e-05
4.588304464689445e-05
4.156085317517312e-05
5.08178598625525e-05
5.726140083906253e-05
3.114152208360122e-05
4.338323098949458e-05
4.746590459907889e-05
4.327683061330548e-05
4.286484037689243e-05
4.703979066460019e-05
4.629330766400777e-05
2.842627368183177e-05
1.882872236066931e-05
3.995145733090279e-05
4.418880396287222e-05
1.873634641456227e-05
1e-16
5.772092140268178e-05
4.45808269429977e-05
2.83484825835481e-05
4.682935325688268e-05
5.369057655006517e-05
3.544091038285635e-05
1e-16
1.206973734723836e-05
4.227425638807627e-05
3.844272679673963e-05
1e-16
3.587381398010192e-05
4.266985039705256e-05
4.137153491027541e-05
3.00293667482575e-05
4.293823355989717e-05
2.876689941568602e-05
2.448488467709361e-05
1.796368858724817e-05
3.173546659702267e-05
4.218921910409874e-05
4.183599559395605e-05
1.943900301810167e-05
3.028122844984558e-05
3.376719081162798e-05
3.712001454915626e-05
4.299649828137451e-05
4.294725062550742e-05
3.768445553793111e-05
2.940791643933908e-05
3.784005914451339e-05
2.14387360334481e-05
6.626782580205404e-06
6.833231417378928e-06
2.293353285590368e-05
4.128769554945381e-05
3.850870244056152e-05
2.833859510160796e-05
1e-16
3.457157698303731e-05
1.457490158121241e-05
3.508752061030593e-05
4.631198054650249e-05
4.08621612363395e-05
2.432354387863741e-05
2.824186597129432e-05
4.846436639539641e-05
4.522344444142574e-05
7.333517394329305e-05
5.810959319946203e-05
7.136009674326575e-05
4.730826979790318e-05
6.073113206009783e-05
6.08746427574884e-05
5.920365607317627e-05
6.678260017776817e-05
6.935995768227888e-05
4.011837187514457e-05
5.721930347755694e-05
6.627561109518873e-05
6.044018777051e-05
6.156207081690684e-05
6.711969756438518e-05
5.885879267305391e-05
2.784283299382554e-05
2.506380103598078e-05
5.854155335224636e-05
4.828956387688839e-05
1.418973110515616e-05
2.044096945126441e-05
7.673769115161915e-05
5.946442938824155e-05
4.353893019335393e-05
5.64638261697008e-05
5.793460192280423e-05
2.651327646241998e-05
1e-16
2.936021553111333e-05
4.84244675121575e-05
3.755662484963924e-05
1e-16
4.757795449950166e-05
5.866561327273004e-05
5.558014755273578e-05
4.412415812366962e-05
4.576340698199282e-05
2.705390393781662e-05
2.685626343771589e-05
2.753763811587134e-05
4.648188799048711e-05
5.352616139677952e-05
5.114340769525923e-05
3.169826870258124e-05
4.153045859099056e-05
4.494829863386567e-05
4.99929197555997e-05
5.716788301136162e-05
5.675680420647263e-05
4.966809190558227e-05
4.011126134475504e-05
4.588687084579734e-05
2.788254452701907e-05
8.211778132471775e-06
1e-16
3.421723687570776e-05
5.510550575634616e-05
4.86151017943694e-05
3.632604171301312e-05
1.635031451807808e-05
3.911450503555397e-05
3.114598408357051e-05
4.731607615578081e-05
5.938886535019141e-05
5.9440819298219e-05
5.172078003704834e-05
5.029029764505024e-05
6.300822385890928e-05
6.136825982208465e-05
8.861558755218467e-05
7.864950393396725e-05
9.20590639367175e-05
7.013257681277583e-05
8.1266156971139e-05
8.034999977492317e-05
8.230075205545693e-05
8.686951809618737e-05
8.478437668652341e-05
5.82380694827104e-05
7.640872617615933e-05
8.791698925775556e-05
8.21639490407845e-05
8.508764925698214e-05
8.829937230005828e-05
7.580090140351665e-05
4.266033703376257e-05
4.747155719946542e-05
7.81515578409989e-05
5.62237433790492e-05
4.02901681289586e-05
4.949882229479988e-05
9.355933415471669e-05
7.582635762394917e-05
6.340721132918066e-05
6.85512562904702e-05
6.146592943280514e-05
3.614224972420909e-05
3.447363851393877e-05
5.050219929410839e-05
5.611047203147115e-05
4.293531690796185e-05
1.088965389492796e-05
6.150202762008589e-05
7.354513810114586e-05
6.942015420393633e-05
6.021217350378556e-05
5.055749954333892e-05
3.474956217520813e-05
3.956901986307027e-05
4.62378838952179e-05
6.355523621971543e-05
6.558253027191254e-05
6.273029493217547e-05
4.83187704269617e-05
5.574443984195789e-05
5.851275602537396e-05
6.569149462207033e-05
7.463492520844261e-05
7.436934544452397e-05
6.480249134678288e-05
5.323979672303538e-05
5.917213196856004e-05
4.100630310351213e-05
2.052264020405411e-05
8.380122857932503e-06
4.752309976732302e-05
7.209081497836941e-05
6.19798303074797e-05
4.769369170878446e-05
3.345355073645826e-05
4.651581955891123e-05
4.903099290269004e-05
6.387242472369888e-05
7.683814066311816e-05
8.226117306540014e-05
8.180004024413696e-05
7.839758379724361e-05
8.660702537294858e-05
8.951698651881788e-05
0.0001090328011602816
0.0001060573560457644
0.0001185307168761128
0.000100300160567258
0.0001082579727954139
0.0001060011934038116
0.0001118158548366191
0.0001127884937490737
0.0001063020669713035
8.644505888436011e-05
0.000103161028083647
0.0001142713493473362
0.0001098159254649916
0.0001139264766263937
0.0001121821675322573
9.717062889890013e-05
6.90238116240001e-05
7.787022833168555e-05
0.0001003300819777079
7.276683627361416e-05
6.937204038253304e-05
8.116207103851071e-05
0.0001116047167960686
9.606196839700924e-05
8.755214872228331e-05
8.478996999774637e-05
7.053233614961637e-05
5.942425540441841e-05
6.389418691698338e-05
7.459329988631601e-05
6.969556675547576e-05
6.03290242227437e-05
5.443915793140448e-05
7.954175262468983e-05
8.948209788834455e-05
8.497576984336697e-05
7.726673805552016e-05
6.366613424950222e-05
5.471804151398506e-05
6.021967441593755e-05
6.978620522222121e-05
8.250290261549664e-05
7.950984467085464e-05
7.802817100024601e-05
6.857837368969421e-05
7.290116376078323e-05
7.524709253622477e-05
8.491690197895162e-05
9.595125675588021e-05
9.598366642497391e-05
8.354423290995825e-05
6.943680144076773e-05
7.760078541484646e-05
5.980078871746117e-05
3.93159751489624e-05
2.892646263644258e-05
6.228018210784277e-05
8.945781476014068e-05
7.941037432149623e-05
6.547507773439696e-05
5.506666091034932e-05
5.831643268000424e-05
6.881857289125404e-05
8.443113694116418e-05
9.938276634229376e-05
0.0001108932735781247
0.0001176799533547123
0.0001145088431688505
0.0001204790926706427
0.0001280585181968982
0.000138774882574573
0.0001421445308478958
0.0001528666517755132
0.0001388647941093173
0.0001437891228111571
0.000140042351784094
0.000149241462646888
0.0001465528662168446
0.000136911513246837
0.0001250724082749838
0.0001392787788353171
0.000147490334948955
0.0001448538346437014
0.0001487890255783968
0.0001408591992467357
0.0001249616666512401
0.0001054006859818845
0.0001153676589880418
0.0001273640596337795
0.0001008077656289824
0.0001053391454904226
0.0001169869220181567
0.0001339653402142043
0.0001224650411498628
0.0001166956541542352
0.0001077414675315855
9.163026885257161e-05
8.978175208916551e-05
9.693746157485775e-05
0.000103069803005016
9.225125447061721e-05
8.680862121293401e-05
8.875066376689516e-05
0.0001029723393955627
0.0001093015607648177
0.0001048521272707463
9.848062070121344e-05
8.640892776258436e-05
8.181865195948112e-05
8.747666275806054e-05
9.699120454493883e-05
0.0001034247448088149
9.697322383799424e-05
9.805337827546915e-05
9.227936715892197e-05
9.33353502672409e-05
9.597656560472525e-05
0.0001083540818820152
0.0001216328056578073
0.0001219367279826379
0.0001065068154653735
8.964872046334676e-05
0.0001013782075880637
8.358020680651706e-05
6.187935415246528e-05
5.115131656770793e-05
7.694705183412096e-05
0.000104303022800336
0.0001007542678795807
9.130327959792373e-05
8.376988364660511e-05
7.759238711627087e-05
9.252821796189862e-05
0.000110184525692469
0.0001279416241972526
0.0001468565269449601
0.0001613701590403159
0.0001599161132437601
0.0001657944132254829
0.0001774047902490187
0.0001818640178912777
0.0001893426975840089
0.0001976676946367761
0.000187771594876133
0.000190129319716645
0.0001852305364238603
0.000196435508155466
0.000190732388833135
0.0001800082419353955
0.000175619168854379
0.0001863537983596735
0.00019008434578519
0.0001887953459328027
0.0001908031812743705
0.0001772156892281167
0.0001630248716072186
0.000151799136327093
0.000160501566957187
0.0001624743687623398
0.0001414089648110488
0.0001494080928212111
0.0001584597019664741
0.0001643051399613054
0.0001571815893519612
0.0001525722262399459
0.0001403424440014256
0.0001265317825163176
0.0001294238681622233
0.0001367594035612155
0.000138225860206718
0.0001256795443448829
0.0001233418057926864
0.0001292504384646607
0.0001341126900135785
0.0001366216773918701
0.0001323970024241041
0.0001277154761850134
0.000118516325724599
0.0001158140225009913
0.0001213409084636679
0.0001282952788999862
0.0001286355591672575
0.0001212536120003024
0.0001246501693604849
0.0001205571977412507
0.0001188894741947799
0.0001223781072040034
0.0001365933575659445
0.0001521943280464158
0.000152734303817434
0.0001344321621776697
0.0001148546759092264
0.0001310385918201755
0.000112431351066358
8.721322202036775e-05
7.37917223364743e-05
9.039763220754893e-05
0.0001160032344868053
0.0001224688384664626
0.0001242657189333326
0.0001216101331481156
0.0001070852134426296
0.0001229735563744277
0.0001435118169526014
0.0001642676364613653
0.0001884509348925773
0.0002121512320713697
0.0002135178144812835
0.0002213024040955227
0.0002380261204071852
0.0002399431598873566
0.0002501285675110661
0.0002560024724122566
0.0002495844466521462
0.0002499024593271228
0.0002446734137259385
0.0002557594882421923
0.000248595592875018
0.0002391765470833759
0.0002399669214962541
0.0002460495611128064
0.0002448620114144516
0.0002434198898606292
0.0002419581759185722
0.0002253647315394673
0.0002146233777617205
0.0002093453499587869
0.0002148214744787601
0.0002098244089902369
0.0001957366869908608
0.0002033558058704268
0.0002080677678019303
0.0002066404400644581
0.0002025932175174059
0.0001980335888208286
0.0001857191917902497
0.0001754241796689608
0.0001797336426204238
0.0001849863623057377
0.0001831788760027725
0.0001718617567161459
0.0001713010821542983
0.0001767796841212047
0.0001755555910736622
0.0001749464427511228
0.0001708359506817109
0.0001671152320357327
0.0001609478362864046
0.0001581831387140872
0.0001628722804639831
0.0001656587981261088
0.0001615612609512997
0.0001554841254389018
0.0001598688605805883
0.0001557188689181808
0.0001524793293380806
0.0001572714762425269
0.0001723962149175117
0.000188177148184814
0.0001890551711696785
0.0001681566615241708
0.0001460183003126612
0.0001673592310033064
0.0001472039053974435
0.0001172777012031389
9.894794838526741e-05
0.0001050224142890727
0.0001260861793650443
0.0001421523820318712
0.0001596501452807272
0.0001668061670878266
0.0001446917686705989
0.0001596258113355557
0.000183054641317786
0.0002060273939116371
0.0002344585841761407
0.000266195950216535
0.0002725067906325011
0.000283689239176416
0.0003065266561071791
0.0003088237029337942
0.0003229687723876829
0.0003285118620103595
0.000325199662915511
0.0003245116387236056
0.0003198973549846269
0.0003298629125922645
0.0003232113491552476
0.000316878888363373
0.0003197829664503427
0.000320426868253666
0.0003148176789502676
0.0003111399079415929
0.0003057039821579345
0.0002896856144686614
0.0002822639341089884
0.0002799387757124748
0.0002813117063188295
0.0002736405041790533
0.0002650733628600484
0.00026952403277463
0.0002695637249271578
0.0002647649443112686
0.0002617976430064485
0.0002568988451035894
0.0002465448905643221
0.0002391236083140661
0.0002425302358832595
0.0002447262922507965
0.0002413264774836014
0.0002323751759232549
0.0002319682643680688
0.0002344809428035236
0.0002299333104261987
0.0002266358697307818
0.0002217588057843686
0.0002182502255859295
0.0002142913192592749
0.0002114543384254938
0.0002131548352030916
0.0002113774831671618
0.0002051448167617885
0.0002012689524940289
0.0002048724840944545
0.0001997606257181198
0.0001962504556080002
0.0002024363381916386
0.0002173847882851371
0.000231511178571914
0.0002317628848077132
0.0002085512406982774
0.0001840788847771838
0.0002113025681451154
0.0001891968391235768
0.0001552619402579583
0.0001299193724533352
0.000125239106586806
0.0001390019858816848
0.000160806536312483
0.0001917662318197513
0.0002117657929015244
0.0001882215560562896
0.0001993419540493439
0.0002242559173343826
0.0002493544597496034
0.0002817169386663568
0.0003206402660173956
0.0003334213405670617
0.0003492423715824657
0.0003771767547506971
0.0003824490294829827
0.0004004730229213315
0.0004073304766667925
0.0004076501325358265
0.0004076520120036511
0.000405317794599639
0.0004157136051967375
0.000411805417169691
0.0004103609725597542
0.0004145664852541999
0.0004110003393973673
0.0004017956850676728
0.0003946464760091433
0.0003858625448417294
0.0003718108936989607
0.0003662861156045341
0.0003649385506469901
0.0003633176271680956
0.0003556911210965315
0.0003499318773719964
0.0003505992116433535
0.0003472011729798696
0.0003412508109567835
0.0003376651810109334
0.0003323874231745579
0.0003239730893214498
0.0003182541220068112
0.0003195740316836023
0.0003192641526595507
0.0003153078933267166
0.0003082851677545249
0.0003067007951594637
0.0003058053480366776
0.0002992508112481554
0.0002932185407696414
0.0002865773099208663
0.0002827940052215514
0.0002799440080765722
0.0002765601711214024
0.0002736732401345299
0.0002679905799137482
0.0002614364562696523
0.0002591065385730821
0.000260365764653328
0.0002542286194758156
0.0002513945823203156
0.0002584792273546499
0.0002720214910581652
0.0002831750769736633
0.0002814108488857479
0.0002563516816931768
0.0002299107404722259
0.000263898849534547
0.0002399136798233743
0.0002028765035207373
0.0001697244202731932
0.0001549225716968585
0.0001593747587330098
0.0001800185694391297
0.000216034646614077
0.0002463280782117507
0.0002338143669265866
0.0002404816974816411
0.0002641425958771489
0.0002911075151598597
0.0003268687997347168
0.0003717028272935827
0.0003921501631323592
0.0004141305804852378
0.000445163613435223
0.0004556325898818306
0.0004760167868870914
0.0004848648963095911
0.0004888076407499056
0.0004909532575277668
0.0004928609638677342
0.0005040968580409578
0.0005054859871055366
0.0005094821820102803
0.000514460884649696
0.0005087235547220138
0.000497115300420008
0.0004870438738278636
0.0004761337223903206
0.0004643662965615505
0.0004604946761264913
0.0004598769572245989
0.0004572814612809309
0.0004507998812321937
0.0004464304108449564
0.0004446216324884136
0.0004395201253331307
0.000432885479139219
0.0004280034432168139
0.0004224144910844244
0.0004155267873841632
0.0004109050722141722
0.0004104421400507956
0.000408731919512206
0.0004046140442261814
0.0003986995337395331
0.0003954435072582685
0.0003915192705666999
0.0003832689675629743
0.0003746455906753112
0.000365760559910796
0.0003611230893604111
0.0003585755863451048
0.0003543293420406236
0.0003464106278150467
0.0003376792775466188
0.0003312765068408651
0.0003288055894901377
0.0003267909548656309
0.0003199483238482843
0.0003179493905614686
0.0003248044515161879
0.0003357317753229651
0.0003430021631878392
0.0003379698640836624
0.0003120408582198313
0.000284256824949346
0.0003261249806606874
0.0003010064327260984
0.0002625766933634109
0.0002223176212794906
0.0001978639881045532
0.0001910894549543406
0.0002028957345312399
0.0002324822836356348
0.0002654772558426351
0.000271226540102325
0.0002807357460080079
0.0003011884500238782
0.0003288662772810873
0.0003665064659973779
0.0004140071904932613
0.0004435804973626972
0.0004730760842185276
0.0005052823291281872
0.0005226985445822716
0.0005438272125026216
0.0005554373689093053
0.0005632698838445304
0.000569209037218431
0.0005762406455915362
0.0005887321385553528
0.0005955139223362324
0.0006027276756177671
0.0006063313515475822
0.0005992258128041458
0.0005868601185950702
0.0005755395184212925
0.0005650426400852852
0.0005568606526265339
0.0005549744718223573
0.00055511783278964
0.0005531532697723425
0.0005487842887093312
0.0005454214387055929
0.0005423259588158279
0.000536798767375147
0.0005303141118487503
0.0005249043677998271
0.0005196726165246412
0.0005144925436802335
0.0005110570962243894
0.0005098036020553135
0.0005076455800403895
0.0005037529189425652
0.0004985410931110056
0.0004938486831355005
0.0004876423251584644
0.0004782019539569896
0.0004678351732071242
0.0004572255277228244
0.0004512448306830072
0.0004482140825629162
0.0004427121288406134
0.0004328453481064158
0.0004225792832805255
0.0004155201448077839
0.0004109023708637701
0.0004052966119484939
0.0003976400418608796
0.0003950050690395171