/*--------------------------------*- C++ -*----------------------------------*\
| =========                 |                                                 |
| \\      /  F ield         | OpenFOAM: The Open Source CFD Toolbox           |
|  \\    /   O peration     | Version:  v1812                                 |
|   \\  /    A nd           | Web:      www.OpenFOAM.com                      |
|    \\/     M anipulation  |                                                 |
\*---------------------------------------------------------------------------*/
FoamFile
{
    version     2.0;
    format      ascii;
    class       volScalarField;
    location    "0.00000026";
    object      p;
}
// * * * * * * * * * * * * * * * * * * * * * * * * * * * * * * * * * * * * * //

dimensions      [0 2 -2 0 0 0 0];


internalField   nonuniform List<scalar> 
3500
(
-9.349648981708193e-05
-9.360529521684185e-05
-7.098644038646251e-05
-5.039743668872478e-05
-4.915642862798529e-05
-3.849128443928088e-05
-3.337639365689589e-05
-3.144341142780806e-05
-2.954668741358528e-05
-2.881299060026586e-05
-2.804428981494824e-05
-2.600240277617933e-05
-2.405571187043513e-05
-2.15367458465043e-05
-1.888165798932161e-05
-1.762064147196371e-05
-1.93371117554878e-05
-1.674635711239305e-05
-1.159056497801161e-05
-4.824043487313673e-06
2.972849439834898e-06
1.069871722380713e-05
1.856503041491794e-05
2.650208123440231e-05
3.399647705087099e-05
4.149250833296189e-05
4.870550414955442e-05
5.489551851543351e-05
6.10407028573829e-05
6.713746652303353e-05
7.239453605166226e-05
7.731436607472225e-05
8.180740953929523e-05
8.600968038095727e-05
8.926934843151169e-05
9.242028412492147e-05
9.663849797625269e-05
0.0001003892336003282
0.0001026849528763216
0.0001051633441125769
0.000109193943215037
0.0001128618265324269
0.000115021404052333
0.0001177803653120598
0.0001206056657366171
0.0001228037015395601
0.0001240846048537607
0.0001257744919220422
0.0001292011740324272
0.0001327055420895338
0.0001338560816345834
0.0001357375979950774
0.0001395321438903027
0.0001422963855985761
0.0001452289561801431
0.0001482501983741866
0.0001507645855647334
0.0001527036918012678
0.0001548627790355847
0.0001559677136293212
0.0001547448675890865
0.0001503170251891889
0.0001422552517542748
0.0001294872413702805
0.0001099146204030605
6.980679151742838e-05
-5.581715201497494e-06
-0.0001224374880540955
-0.0001955108609819071
-0.0001414898193092085
-9.349633113121551e-05
-9.36120488286813e-05
-7.109954635436185e-05
-5.048130081676177e-05
-4.921309154614621e-05
-3.857559434444146e-05
-3.341272086290474e-05
-3.145770522850306e-05
-2.955164240829894e-05
-2.881082238207961e-05
-2.805040815408493e-05
-2.601545715938312e-05
-2.406847787262921e-05
-2.154905665108107e-05
-1.888825967352476e-05
-1.761726947193109e-05
-1.932862235244398e-05
-1.67361044458342e-05
-1.158118692710249e-05
-4.815783028047293e-06
2.979062384167459e-06
1.070433989322654e-05
1.857051200166766e-05
2.650641125138297e-05
3.399988270416618e-05
4.149503860310231e-05
4.870671015323838e-05
5.489660548958676e-05
6.104133066294649e-05
6.713727702930555e-05
7.239402735428115e-05
7.731369958877376e-05
8.180645282028999e-05
8.600883392037893e-05
8.926923430458222e-05
9.24196445285864e-05
9.663600991140761e-05
0.0001003873666006134
0.0001026848812255374
0.0001051622757299468
0.0001091906443016007
0.000112858705980725
0.0001150189047687982
0.0001177775606391616
0.0001206029107689464
0.0001228028424110515
0.0001240860726602464
0.0001257734944853377
0.0001291960925978502
0.0001327020081782748
0.0001338564241133265
0.0001357366363565325
0.0001395282018286201
0.0001422930306963857
0.0001452298805365752
0.0001482565388102479
0.0001507730352801737
0.0001527127989186124
0.0001548675222767483
0.0001559509378077451
0.0001546942955210784
0.0001502268322079255
0.0001421185505502378
0.0001292817141495369
0.0001095507973468798
6.916242797847354e-05
-6.488251895368336e-06
-0.0001230267971655493
-0.0001954493703704342
-0.000141453469475973
-9.348833503574239e-05
-9.361442305007312e-05
-7.122533115793878e-05
-5.05758209710127e-05
-4.927857338404056e-05
-3.867398631232e-05
-3.345582130764883e-05
-3.147459829833299e-05
-2.955708917418653e-05
-2.88081347926521e-05
-2.805788848762988e-05
-2.603183828819774e-05
-2.40843978118022e-05
-2.156695021975184e-05
-1.889978051814614e-05
-1.761493049568721e-05
-1.931933326635527e-05
-1.672499956403638e-05
-1.157089409951488e-05
-4.806595404805015e-06
2.986082860103497e-06
1.071067530641151e-05
1.857669698577191e-05
2.651136970753839e-05
3.400352437190613e-05
4.149760674060737e-05
4.87080154587118e-05
5.48976080928343e-05
6.104178665141587e-05
6.713691429465044e-05
7.239330097848592e-05
7.731278699052511e-05
8.180528032067834e-05
8.600803193562351e-05
8.926912571815831e-05
9.241860900478566e-05
9.663290817841177e-05
0.0001003855044254967
0.0001026848218494114
0.000105160765367556
0.0001091864783908254
0.0001128551593098593
0.0001150157790988417
0.0001177742438798014
0.0001205997352949754
0.0001228019262846412
0.0001240879752701793
0.0001257719959279588
0.0001291899263295527
0.0001326981673404269
0.00013385699163768
0.00013573537073893
0.0001395236567252455
0.0001422889376404435
0.0001452307096648889
0.0001482638109010715
0.0001507829151853384
0.0001527231075263646
0.0001548726718953827
0.0001559301937318105
0.0001546337565039676
0.0001501204510232137
0.0001419572660845918
0.0001290396038621274
0.0001091232408134567
6.841974725053665e-05
-7.491919205910667e-06
-0.0001235736196729405
-0.0001952398544448427
-0.0001414113569287323
-9.346596236898187e-05
-9.360713346231447e-05
-7.135926699162319e-05
-5.068254600262288e-05
-4.935308256714934e-05
-3.878852534334647e-05
-3.350609048013228e-05
-3.14944476905388e-05
-2.956270400870397e-05
-2.880510646730775e-05
-2.806763718046271e-05
-2.605394865001594e-05
-2.410714678700183e-05
-2.159784474998448e-05
-1.892355222918119e-05
-1.761622369349597e-05
-1.931313838473417e-05
-1.671616424027226e-05
-1.156239824599978e-05
-4.797121328145061e-06
2.995315386802803e-06
1.07181170660658e-05
1.858371160695258e-05
2.651732799219124e-05
3.40073028968472e-05
4.150052445141373e-05
4.871064851065898e-05
5.489881434633113e-05
6.104259647379336e-05
6.71368977530033e-05
7.23928925335857e-05
7.731202125930303e-05
8.180433189302617e-05
8.600782523175876e-05
8.926900389382472e-05
9.241703144264145e-05
9.662925770668889e-05
0.0001003831992867082
0.0001026851517616477
0.0001051588186711613
0.0001091816543129304
0.0001128515711645978
0.0001150120672980308
0.0001177706994341431
0.0001205964986079371
0.0001228018619269227
0.0001240908571829328
0.0001257693167575033
0.0001291828796754708
0.0001326940645255551
0.000133858685280657
0.0001357331560988253
0.0001395183044961605
0.0001422837645911877
0.0001452313834193557
0.0001482717890401289
0.0001507947481214177
0.0001527352968839327
0.0001548778703663677
0.0001559054626358963
0.0001545609121797555
0.0001499975404155495
0.0001417649312741199
0.0001287550763709536
0.0001086222082024194
6.758166907989857e-05
-8.535963622552329e-06
-0.0001239066624112205
-0.0001946772601269909
-0.0001413538508526898
-9.34232420339839e-05
-9.356352233974212e-05
-7.146707069235086e-05
-5.080775142550165e-05
-4.944012429427602e-05
-3.892670057719031e-05
-3.356670628627476e-05
-3.151926073912133e-05
-2.956838066564739e-05
-2.880100217502703e-05
-2.807948867294775e-05
-2.608468407351257e-05
-2.41471419526604e-05
-2.165346637856584e-05
-1.896832175278405e-05
-1.762743248210906e-05
-1.931662382589063e-05
-1.671099811727271e-05
-1.155883142657428e-05
-4.788111497685901e-06
3.008208735315596e-06
1.072643281025626e-05
1.859141790040974e-05
2.652342999605189e-05
3.401109817229378e-05
4.1504987466245e-05
4.8716078049454e-05
5.49003814976337e-05
6.104445399032402e-05
6.713783942875505e-05
7.239333186475328e-05
7.731181072794049e-05
8.180382210162304e-05
8.600798667855852e-05
8.926825260623633e-05
9.241396784726956e-05
9.662459250776064e-05
0.0001003773197598554
0.0001026871961527839
0.0001051547477728177
0.0001091770929424966
0.000112847921549548
0.0001150073516711954
0.0001177652152240681
0.0001205937533131145
0.0001228076113235154
0.0001240976808819737
0.000125764505017077
0.0001291742456024632
0.0001326898134071715
0.0001338647406725112
0.0001357295380034079
0.0001395117565667253
0.0001422766845476304
0.0001452316855703251
0.0001482782343886368
0.0001508087784099425
0.0001527501541926844
0.0001548785082819923
0.0001558752759996461
0.0001544684803175641
0.0001498519746520513
0.0001415237321166749
0.000128404764793137
0.0001080133745863072
6.661022377201757e-05
-9.600586655623846e-06
-0.0001238731826142251
-0.000193416851663581
-0.0001412121577022437
-9.334399332904165e-05
-9.338462224335805e-05
-7.145626560150073e-05
-5.095547029560162e-05
-4.954181631967014e-05
-3.909420553819416e-05
-3.364075551258501e-05
-3.155124758863766e-05
-2.95777737145939e-05
-2.87958582195018e-05
-2.808995132369077e-05
-2.61266814152351e-05
-2.422006115241377e-05
-2.174881661035383e-05
-1.904245677745222e-05
-1.767278560223984e-05
-1.934422570868654e-05
-1.670576197518306e-05
-1.155966339028635e-05
-4.782046167554243e-06
3.019122046485074e-06
1.073353278798778e-05
1.859977457344558e-05
2.652559804569257e-05
3.401707027416931e-05
4.151105830675174e-05
4.872152029630242e-05
5.490281154363074e-05
6.104702620622598e-05
6.714082697393579e-05
7.239491662581137e-05
7.731262941644483e-05
8.180399232974526e-05
8.600620101716219e-05
8.926549724188015e-05
9.240634905629557e-05
9.662005298875297e-05
0.0001003650849387886
0.0001026924182733009
0.0001051402912148219
0.0001091752622926984
0.0001128447740959638
0.0001150019539533305
0.0001177508377475385
0.00012059240259439
0.0001228295454532603
0.0001241094070864779
0.0001257561754089349
0.0001291608833457403
0.0001326893212948258
0.0001338761638899784
0.0001357234702617072
0.0001395036140224445
0.0001422669820071389
0.0001452327691084944
0.0001482789237375406
0.0001508229936401265
0.0001527664409717285
0.0001548667233345634
0.0001558392007242034
0.0001543537383508264
0.0001496722803440628
0.0001412249776196375
0.0001279651158560945
0.0001072784718702712
6.549003753485624e-05
-1.063550687687768e-05
-0.0001233033852813124
-0.0001910247491416227
-0.0001408609212404505
-9.314147552866941e-05
-9.286258686468895e-05
-7.123934797548432e-05
-5.113328387108255e-05
-4.966208282294122e-05
-3.929836047533828e-05
-3.373422306521777e-05
-3.159038182173591e-05
-2.959950875710978e-05
-2.879301924342879e-05
-2.809994984382984e-05
-2.619032914014298e-05
-2.433469994602713e-05
-2.190429648965513e-05
-1.917497653008377e-05
-1.780830233444305e-05
-1.941105361118413e-05
-1.670807359121145e-05
-1.155272466679127e-05
-4.785620381339668e-06
3.015686867995652e-06
1.074350851248971e-05
1.86095806675342e-05
2.651774510017979e-05
3.402409623011287e-05
4.15070318576912e-05
4.871550563973685e-05
5.490758404382882e-05
6.104219263618908e-05
6.714397688396256e-05
7.239425226616075e-05
7.731189965967942e-05
8.180496239682314e-05
8.600193731619602e-05
8.926093121264261e-05
9.238691022305678e-05
9.661856219916202e-05
0.000100356346860708
0.0001026999722735144
0.000105103532268501
0.0001091700539739596
0.0001128441564218585
0.000114999758751993
0.0001177217413773819
0.0001205930165882034
0.0001228716515000122
0.0001241147529512361
0.0001257446382858271
0.0001291353396821343
0.0001327024084625853
0.0001338788490577871
0.0001357119573949718
0.0001394930194580143
0.0001422567392096316
0.0001452397275563366
0.0001482763995334643
0.0001508339879540709
0.0001527792953701176
0.0001548436011475564
0.0001557928947645224
0.0001542075885010559
0.0001494266082130915
0.0001408678661817387
0.0001274160095683882
0.0001063964980782694
6.420888750844593e-05
-1.163054064588304e-05
-0.0001220246410311191
-0.000187184843586395
-0.0001401782469007879
-9.266658415834277e-05
-9.183926105492679e-05
-7.092310851260579e-05
-5.138261939217087e-05
-4.981361048444141e-05
-3.955512597265427e-05
-3.385572065917451e-05
-3.163148434103621e-05
-2.963640651537601e-05
-2.879564759301281e-05
-2.813009597133345e-05
-2.630132073231128e-05
-2.44937361128584e-05
-2.213151342960641e-05
-1.942570262357e-05
-1.812555190851908e-05
-1.952394044932974e-05
-1.674429940654837e-05
-1.154744696139392e-05
-4.796099113316968e-06
2.992189292696678e-06
1.075739348111813e-05
1.860344146921063e-05
2.649443547659618e-05
3.40176157762218e-05
4.147398385931754e-05
4.86801940040844e-05
5.491268341206544e-05
6.100845794386392e-05
6.713186119746988e-05
7.238080614397458e-05
7.729833509756752e-05
8.180360034834203e-05
8.600751372613057e-05
8.925779338803909e-05
9.235196445535863e-05
9.6612772035203e-05
0.000100386966389757
0.0001026987323597546
0.0001050659954743627
0.0001091207265441689
0.0001128463200372874
0.0001150071118874681
0.0001176946751009789
0.0001205995390157969
0.0001229088911685233
0.0001240911252214199
0.0001257363612365283
0.0001290959427419807
0.0001327335448109375
0.0001338481425528716
0.0001356851010654015
0.0001394790822699671
0.0001422574398368352
0.0001452608656669794
0.0001482957125710236
0.0001508426384597676
0.0001527861972596458
0.0001548329512729256
0.0001557156676305123
0.0001539844079080248
0.0001490576267330991
0.0001404357114229199
0.0001267388023123338
0.0001052995457098668
6.269058490011036e-05
-1.268505636761293e-05
-0.0001199489651069811
-0.0001818743028069703
-0.000139015035660865
-9.19367519214701e-05
-9.054346302846511e-05
-7.077722034086635e-05
-5.179140779015929e-05
-5.002095334866696e-05
-3.989076595494727e-05
-3.400553662481392e-05
-3.166737855363331e-05
-2.9681251466612e-05
-2.879350545998909e-05
-2.819321314259893e-05
-2.649821654003595e-05
-2.471369383544868e-05
-2.244921762792437e-05
-1.98508175324355e-05
-1.866207663135247e-05
-1.971295799696988e-05
-1.682608685543472e-05
-1.15891828008529e-05
-4.818054435575552e-06
2.933881791967029e-06
1.075794589344254e-05
1.855303029940692e-05
2.644339854607085e-05
3.397828690721681e-05
4.141210650292049e-05
4.858664501046274e-05
5.489135226422953e-05
6.093193063161604e-05
6.707060984595614e-05
7.233371373021848e-05
7.725078145365982e-05
8.178782814580647e-05
8.603645106424077e-05
8.924810191935682e-05
9.232620771606264e-05
9.658493982915095e-05
0.0001004657004672522
0.0001026665089958534
0.0001050810265782735
0.0001089824167751275
0.0001128269568851261
0.000115015583524047
0.000117708421643588
0.0001206187906150505
0.00012289929204033
0.0001240434630085513
0.0001257407492371064
0.0001290840173607384
0.0001327542041349272
0.0001338074138043962
0.0001356295741760295
0.0001394664920493183
0.0001422802515143696
0.0001452965398256825
0.0001483649680562177
0.0001508540928798676
0.0001527952892000437
0.000154849732915659
0.0001555621791113375
0.0001536152686096576
0.0001484980088353963
0.0001398852562683192
0.0001258789361235956
0.0001038672055791357
6.076579340788968e-05
-1.39645040723671e-05
-0.0001171576432606264
-0.0001754350979135848
-0.0001369514184508193
-9.117810444271133e-05
-8.919733751258286e-05
-7.071375605244192e-05
-5.245444542812988e-05
-5.030025038640099e-05
-4.031630099534057e-05
-3.41716946956482e-05
-3.169417522981082e-05
-2.97220349916116e-05
-2.877499182684215e-05
-2.827929582900499e-05
-2.680389529593788e-05
-2.504321803622288e-05
-2.290127116028932e-05
-2.047792615649745e-05
-1.937093890079499e-05
-2.000325192717184e-05
-1.694046944535149e-05
-1.169972521662919e-05
-4.871860864908853e-06
2.811179373826488e-06
1.071421682910454e-05
1.847000715254428e-05
2.634608037663954e-05
3.388876362073655e-05
4.134202841948119e-05
4.842671083852635e-05
5.480706378560721e-05
6.084111708857071e-05
6.693468809517164e-05
7.222954217733799e-05
7.715897530650927e-05
8.173692292078307e-05
8.603279911817505e-05
8.92017110365189e-05
9.232441108924871e-05
9.654843183347993e-05
0.0001004748354555831
0.0001026061750500676
0.0001051120798092483
0.0001088625924466308
0.0001127305266679749
0.0001150092676797187
0.0001177672109921121
0.0001206271966771806
0.0001228006749389388
0.0001240003023003834
0.0001257637888288814
0.0001291793927900751
0.0001327044334582658
0.0001337923234775703
0.0001355744763780521
0.0001394716587855821
0.0001423060767608482
0.0001453415407035261
0.000148442018822105
0.0001508609193048701
0.0001528029301662977
0.0001548440648996343
0.0001552765877161589
0.0001530726744524133
0.0001477339551946621
0.0001391289383348311
0.0001247141411181846
0.000101966541321995
5.827789896732906e-05
-1.553035351808621e-05
-0.0001137776226259433
-0.0001681966055323652
-0.000133659096546321
-9.032891726203989e-05
-8.737464846221288e-05
-7.014227025807241e-05
-5.338121860007652e-05
-5.059403132597439e-05
-4.076900607210284e-05
-3.435147936926845e-05
-3.170891058051698e-05
-2.974112644662758e-05
-2.875992779726868e-05
-2.837839905962487e-05
-2.716836232517924e-05
-2.551271348214349e-05
-2.353031895340541e-05
-2.13014779365205e-05
-2.02057193044991e-05
-2.034956150808204e-05
-1.707790511713123e-05
-1.183715643966936e-05
-4.97623248859793e-06
2.635696067376911e-06
1.058955204046198e-05
1.838701873048325e-05
2.620740930309592e-05
3.375033318701192e-05
4.126327904438568e-05
4.823305882700057e-05
5.465045176339219e-05
6.075728762877384e-05
6.677007368576735e-05
7.207879237290923e-05
7.703917379155575e-05
8.165272096385689e-05
8.588724473655994e-05
8.908815335589149e-05
9.231326130511377e-05
9.658861988172436e-05
0.000100282620248457
0.0001025059638766921
0.0001051448777482595
0.0001089973822336354
0.0001125668457931515
0.0001149786985786582
0.0001178202840064079
0.0001205450035770482
0.0001226276772154623
0.000123981330970486
0.0001258340330172417
0.0001293111010342172
0.0001325474081557162
0.0001338097374842325
0.0001356377069785577
0.000139512545104405
0.0001422998544112827
0.000145388599842556
0.0001484354056034759
0.0001508335490971957
0.0001527748670976338
0.0001547244182046825
0.0001548353366541775
0.0001523919435162058
0.0001467923948608309
0.0001380183490898391
0.0001231041404210799
9.952981471400324e-05
5.523485231880982e-05
-1.725927404635446e-05
-0.0001097959814175886
-0.0001600249159500068
-0.000129425633262642
-8.903314836163006e-05
-8.466568700717262e-05
-6.869922357927052e-05
-5.443573129525457e-05
-5.06776111033781e-05
-4.110171137907501e-05
-3.456045308456325e-05
-3.173062206500839e-05
-2.971775424081423e-05
-2.873442835006366e-05
-2.847405776576427e-05
-2.75151948797803e-05
-2.610184519385793e-05
-2.433727901891319e-05
-2.228744639569434e-05
-2.11361765799037e-05
-2.074233347437909e-05
-1.725675544808357e-05
-1.196513951692276e-05
-5.135523234464744e-06
2.44125879401211e-06
1.03878430412674e-05
1.828708040491851e-05
2.604181639231726e-05
3.35855118787009e-05
4.114562729998466e-05
4.799595751426295e-05
5.443338459625811e-05
6.067536533926617e-05
6.661181547689353e-05
7.190767312069498e-05
7.690942271796707e-05
8.154315375636084e-05
8.561217416641799e-05
8.890249144829587e-05
9.226414780599598e-05
9.660973483870812e-05
0.0001000356413720663
0.0001023433286787921
0.0001051657672925825
0.0001091184216958473
0.0001123873655613187
0.0001149176473305234
0.0001178178365818698
0.0001203401088537567
0.0001224417913531794
0.0001239902220330413
0.0001259818173960532
0.0001293242506182238
0.0001322590063269424
0.0001338516890267714
0.0001359711486858437
0.0001395740787702933
0.0001422681117245773
0.0001453968964285117
0.0001483227255379374
0.0001507381223249809
0.0001526579053451074
0.0001543916310849912
0.0001542452056257491
0.0001515721117616968
0.0001456513780286113
0.0001364240915892711
0.0001210016732409312
9.655876093107572e-05
5.1728729897901e-05
-1.898730023299453e-05
-0.0001050884287695783
-0.0001507310865401926
-0.0001245955752540212
-8.709113561180486e-05
-8.138261827549418e-05
-6.641873628663634e-05
-5.512446512683212e-05
-5.010152777436124e-05
-4.115746678757034e-05
-3.480200322335483e-05
-3.179136667926886e-05
-2.962674516114225e-05
-2.862921486555896e-05
-2.853300431984989e-05
-2.785475108403584e-05
-2.677395985842313e-05
-2.528355245392101e-05
-2.341563397387185e-05
-2.2166728924055e-05
-2.120573114322135e-05
-1.751787616199264e-05
-1.211739085499535e-05
-5.343654821753226e-06
2.227812254412426e-06
1.014360693836651e-05
1.813934213909641e-05
2.584708847872435e-05
3.3398652697293e-05
4.095807029398867e-05
4.771037132630076e-05
5.415627487590854e-05
6.056304683575925e-05
6.644348657383512e-05
7.172168705447256e-05
7.676437465721392e-05
8.13890414636259e-05
8.531223112476487e-05
8.863990382030522e-05
9.219384488584107e-05
9.650669307836359e-05
9.980039794755304e-05
0.0001021273706608712
0.0001051823895253313
0.0001091015990492426
0.0001121999113840708
0.0001148252612157322
0.0001177308622656567
0.0001201333116503536
0.0001222656587485192
0.0001239819797489192
0.0001261167642853761
0.0001292366846286451
0.0001320194973182468
0.0001339022528468951
0.0001362807940295156
0.0001396149909794602
0.0001422181455344067
0.0001453361261803566
0.0001481612782331197
0.0001505375064807404
0.0001523946464680319
0.0001538684143422601
0.0001535095909161943
0.0001505550964703796
0.0001442399309742378
0.0001343856937275078
0.000118419179539592
9.303408925745838e-05
4.780324684315383e-05
-2.058785626436992e-05
-9.953766605685964e-05
-0.0001403023652878117
-0.0001191002899211823
-8.453559222843487e-05
-7.794902994613822e-05
-6.335970967493041e-05
-5.38080191176374e-05
-4.843563644597321e-05
-4.080187817193355e-05
-3.501643724180491e-05
-3.186561688305525e-05
-2.945085857384631e-05
-2.842165456480359e-05
-2.852545427462967e-05
-2.819122992072896e-05
-2.748867797484742e-05
-2.632278682344878e-05
-2.468097381101297e-05
-2.331354348100469e-05
-2.175488328431283e-05
-1.789001937591543e-05
-1.234463169109296e-05
-5.598361672266717e-06
1.973312726227417e-06
9.862955409489419e-06
1.792168910759806e-05
2.560841074805781e-05
3.316964126831306e-05
4.067595344460461e-05
4.736799783114855e-05
5.385474180092345e-05
6.039645184324247e-05
6.623910457764347e-05
7.151109236137517e-05
7.657776907384037e-05
8.116076642214691e-05
8.500182294616528e-05
8.835746905088953e-05
9.211882967297065e-05
9.630212540945551e-05
9.952844325324425e-05
0.0001019680471301021
0.0001052071530414981
0.0001090030542711409
0.0001119985711830573
0.0001146953432578536
0.0001175587743006912
0.0001199422641318765
0.0001220997371588031
0.000123952504012667
0.0001261716995375548
0.0001291287884162818
0.0001318696307076169
0.0001339471709661992
0.0001364302949837492
0.0001396158184394908
0.0001421433616561261
0.0001452277165480761
0.0001479687844320611
0.0001502422447217187
0.0001520069977180066
0.0001532285358007121
0.0001525793737985548
0.0001492483007225621
0.000142466095014502
0.0001319381303439097
0.0001152908937678591
8.887795394490845e-05
4.34657988452508e-05
-2.192824715668995e-05
-9.308789220304956e-05
-0.000128798393067668
-0.0001127680921613977
-8.136341356304607e-05
-7.433019704960381e-05
-6.006592617024378e-05
-4.931228569341112e-05
-4.617910358801553e-05
-3.993703550563243e-05
-3.503782882086178e-05
-3.188425255042711e-05
-2.921457786711096e-05
-2.811396097409962e-05
-2.842867683401191e-05
-2.849145677210372e-05
-2.820128492534787e-05
-2.740520733764263e-05
-2.603334702278632e-05
-2.454559091145118e-05
-2.239239221547075e-05
-1.838086151989735e-05
-1.267738931628846e-05
-5.913527153803452e-06
1.656257251036731e-06
9.528372429919155e-06
1.761456917000523e-05
2.530493941435988e-05
3.287025155497985e-05
4.028266749117831e-05
4.696140614409746e-05
5.353379711153353e-05
6.015487141358294e-05
6.59752454012246e-05
7.125819506433288e-05
7.631584613309308e-05
8.083591556054656e-05
8.465168256214836e-05
8.809360029592734e-05
9.199766254725662e-05
9.601967056937721e-05
9.921261397241077e-05
0.0001018627301947759
0.0001051910208781949
0.0001088381005674683
0.0001117769075536066
0.0001145152493538572
0.0001173183435675531
0.0001197262106693209
0.0001219418550367365
0.0001239180703468828
0.0001261677498957435
0.0001290078475673082
0.000131735645799163
0.0001339716580623668
0.0001364851202746428
0.0001395698036163918
0.0001420305871317096
0.0001450771018524907
0.0001477195111432433
0.0001498737557417767
0.0001515001089570427
0.0001524095158655494
0.0001513427638888788
0.0001475260784458689
0.0001402051623233078
0.0001289500967132014
0.0001114492321308959
8.397397182605212e-05
3.8737208162319e-05
-2.284196679458144e-05
-8.571235553063998e-05
-0.000116346425336184
-0.0001055244763823205
-7.74434117402601e-05
-7.043074265983688e-05
-5.764432257211699e-05
-4.487269076228821e-05
-4.356812209769982e-05
-3.86567382828184e-05
-3.460500945488705e-05
-3.171038988986463e-05
-2.892430881923974e-05
-2.771176794210144e-05
-2.8188485787218e-05
-2.868214418438302e-05
-2.884035917298712e-05
-2.845887568321846e-05
-2.739578606083108e-05
-2.580495361795134e-05
-2.309934896208325e-05
-1.897085443588922e-05
-1.311464408199385e-05
-6.30616906111638e-06
1.261417164251643e-06
9.123279573247374e-06
1.72032657143187e-05
2.491275603090021e-05
3.247214053410743e-05
3.977483897360953e-05
4.649055810155902e-05
5.316955827523619e-05
5.981225256554061e-05
6.562551335749281e-05
7.093366522901935e-05
7.594604082229534e-05
8.040128579273383e-05
8.424763432555527e-05
8.782453399517232e-05
9.178409810102007e-05
9.565621613752535e-05
9.886936722151329e-05
0.0001017473107540854
0.0001050919357164965
0.0001085953167702106
0.0001115199437365723
0.0001142727998895921
0.0001170194608845862
0.0001194706378098708
0.0001217649946684181
0.0001238493979340411
0.0001261149787529253
0.0001288547267738902
0.0001315854669978391
0.0001339321431612031
0.0001364567666123038
0.0001394568503714689
0.0001418525819255545
0.0001448494247115451
0.0001473711425517043
0.0001493709803845148
0.0001507849573012063
0.0001512696504593517
0.000149655636386069
0.0001452392181141853
0.0001372896251681511
0.0001252031305301208
0.0001066940375132589
7.821937519436717e-05
3.368503759243069e-05
-2.316942829545021e-05
-7.738646977069212e-05
-0.0001031655898152895
-9.735982019984039e-05
-7.26692416694684e-05
-6.614067486905359e-05
-5.58943101725072e-05
-4.281926170991306e-05
-4.045451636747089e-05
-3.718585476609737e-05
-3.336922220868278e-05
-3.103653159273861e-05
-2.848342484274275e-05
-2.721863630297478e-05
-2.775031410872327e-05
-2.868069595138652e-05
-2.932012837547528e-05
-2.938463040821879e-05
-2.866031774662668e-05
-2.700554425013577e-05
-2.381640139698288e-05
-1.959789840994017e-05
-1.360159393141572e-05
-6.747897653511616e-06
8.07759120170073e-07
8.656823620836689e-06
1.669794333458398e-05
2.4424591273232e-05
3.196605891272126e-05
3.917329303137531e-05
4.596179740770111e-05
5.272979917864923e-05
5.93414342242897e-05
6.515876598013693e-05
7.049511029837187e-05
7.544354536168064e-05
7.985445100187738e-05
8.378332398309329e-05
8.750329413756796e-05
9.145187161931926e-05
9.520983558530034e-05
9.849353427810381e-05
0.0001015647227156305
0.0001048834111294569
0.0001082647711896899
0.0001112024350603162
0.000113957952151017
0.0001166626665393797
0.0001191655428021369
0.0001215346619361241
0.0001237148593553144
0.0001260005306291402
0.0001286525207863247
0.000131382333196492
0.0001337959758113385
0.0001363168120929874
0.0001392344042193439
0.0001415532017485122
0.0001444816699407022
0.0001468535816783485
0.000148623081468209
0.0001497226650996967
0.000149649816099597
0.0001473592501018764
0.0001422257653683261
0.0001335257185765034
0.0001204767838131893
0.0001008688210151291
7.161129328593944e-05
2.850593543065168e-05
-2.273534399290215e-05
-6.814700657546078e-05
-8.955037628594431e-05
-8.829926296480682e-05
-6.699785470706189e-05
-6.130180249135484e-05
-5.388209446181777e-05
-4.21690982762118e-05
-3.755468559441879e-05
-3.49891478391292e-05
-3.10977086184361e-05
-2.943524618519399e-05
-2.769005270085235e-05
-2.661519228902381e-05
-2.706749462667326e-05
-2.838530815156371e-05
-2.95222209871756e-05
-3.003996449304742e-05
-2.967015021548358e-05
-2.801071484857663e-05
-2.443144817942406e-05
-2.014925994912283e-05
-1.402766058685082e-05
-7.136788007361269e-06
3.821994411562306e-07
8.198106552452584e-06
1.616790378619046e-05
2.389512741867082e-05
3.140477802728139e-05
3.854459977478524e-05
4.541235569934806e-05
5.221171242332002e-05
5.873766640140117e-05
6.455642512352407e-05
6.990854228864332e-05
7.48028766220557e-05
7.920780258065463e-05
8.32460987606197e-05
8.708722818754957e-05
9.099736048404982e-05
9.468789136662955e-05
9.80590661705838e-05
0.0001012692906788212
0.0001045528123497325
0.000107839253747373
0.0001107966875751698
0.0001135579606851835
0.0001162400231957027
0.0001187889276592211
0.0001212162938148645
0.0001234823370194164
0.0001257942767389427
0.0001283773969917393
0.0001310719409578362
0.0001335249538987081
0.0001360167915749354
0.0001388323382406306
0.000141044208229573
0.0001438815938320624
0.0001460529184021448
0.000147483676459021
0.0001481339068016044
0.0001473679773548391
0.0001442747521927724
0.0001383008516158701
0.000128704751825116
0.0001145840640036764
9.391659438532647e-05
6.431442618957684e-05
2.356922443246899e-05
-2.12989715992696e-05
-5.813895142589273e-05
-7.584409104609055e-05
-7.841962846572954e-05
-6.041755107612459e-05
-5.584230615488313e-05
-5.102913533317865e-05
-4.180236110485321e-05
-3.567327229157177e-05
-3.199631172269119e-05
-2.810832331157367e-05
-2.656089311743595e-05
-2.623364182186808e-05
-2.58075519242188e-05
-2.611662989289816e-05
-2.764554184133488e-05
-2.92505605770712e-05
-3.020896423406686e-05
-3.019230839643407e-05
-2.860512418143911e-05
-2.475567555974677e-05
-2.044460722107959e-05
-1.423860607153592e-05
-7.329859635657205e-06
1.198530875367617e-07
7.870215430519782e-06
1.574256842824464e-05
2.344845797582534e-05
3.091595611042751e-05
3.801444686106373e-05
4.493271851146624e-05
5.167855504781517e-05
5.805955932437616e-05
6.384887768638372e-05
6.918777061439547e-05
7.404989125388948e-05
7.848919524776582e-05
8.263817575846535e-05
8.65699677809443e-05
9.044130410802828e-05
9.410488463810881e-05
9.755029329754857e-05
0.0001008452089609549
0.0001041000072007483
0.000107313210025632
0.0001102829487496663
0.0001130569407215641
0.0001157338191365637
0.000118313919235535
0.0001207817592136574
0.000123118569331323
0.0001254549124279237
0.0001279759785515927
0.0001305968858368018