/*--------------------------------*- C++ -*----------------------------------*\
| =========                 |                                                 |
| \\      /  F ield         | OpenFOAM: The Open Source CFD Toolbox           |
|  \\    /   O peration     | Version:  v1812                                 |
|   \\  /    A nd           | Web:      www.OpenFOAM.com                      |
|    \\/     M anipulation  |                                                 |
\*---------------------------------------------------------------------------*/
FoamFile
{
    version     2.0;
    format      ascii;
    class       surfaceScalarField;
    location    "0.00000026";
    object      phi;
}
// * * * * * * * * * * * * * * * * * * * * * * * * * * * * * * * * * * * * * //

dimensions      [0 3 -1 0 0 0 0];
oriented        oriented;


internalField   nonuniform List<scalar> 
6880
(
6.469873655362376e-08
-4.997372038799776e-09
2.334149371198609e-08
4.135829952597763e-08
-2.502926750891148e-08
4.837184596123249e-08
-3.5463608654754e-08
1.043539130592889e-08
-3.667416749195881e-08
1.211597825687576e-09
-3.232537507429924e-08
-4.347740172207135e-09
-2.483463771455315e-08
-7.489666827629271e-09
-2.452505678701757e-08
-3.084953417994274e-10
-2.959073811306322e-08
5.066778325016928e-09
-3.698461850718931e-08
7.394979081430873e-09
-4.389716631244336e-08
6.913643078123239e-09
-4.948747931994098e-08
5.591418267800882e-09
-5.7913639571986e-08
8.427261247355088e-09
-6.654870786060771e-08
8.636145590434509e-09
-6.258032158616183e-08
-3.967352735057509e-09
-6.675081491004582e-08
4.171461178896076e-09
-9.814498736617763e-08
3.13950241381844e-08
-1.221891865159298e-07
2.404489213957391e-08
-1.340207656871007e-07
1.183210017939391e-08
-1.378318955500395e-07
3.811486588104147e-09
-1.339330381006363e-07
-3.898661118303757e-09
-1.290249828203725e-07
-4.907993360991001e-09
-1.249136915907253e-07
-4.111345803844023e-09
-1.188345562925111e-07
-6.079295728759615e-09
-1.118356059374095e-07
-6.999202628188177e-09
-1.036498041600497e-07
-8.186131140656895e-09
-9.367768379512793e-08
-9.972519304285164e-09
-8.615429651068591e-08
-7.523825714276887e-09
-7.871330790926561e-08
-7.441461372801823e-09
-6.983060063166499e-08
-8.883205448701433e-09
-6.195151617827397e-08
-7.879592328668508e-09
-5.51538503561106e-08
-6.79817186004947e-09
-4.8526979384672e-08
-6.627362363304306e-09
-4.331550778047727e-08
-5.211931821292146e-09
-4.245182223141833e-08
-8.641064348758846e-10
-4.137426918274391e-08
-1.077938949220611e-09
-3.339814010591987e-08
-7.976473852173127e-09
-2.685802722591821e-08
-6.540391310341841e-09
-2.89599643324435e-08
2.101723375852321e-09
-3.006792122240512e-08
1.107796359311263e-09
-2.317427616201918e-08
-6.893738970509638e-09
-1.540501856783649e-08
-7.769258237297446e-09
-1.096681085836227e-08
-4.438123396887234e-09
-6.809297423970315e-09
-4.15733503430088e-09
-1.950386302746843e-09
-4.858612244782766e-09
-2.707664399189613e-09
7.576924217156532e-10
-1.294362985258006e-08
1.0236469023713e-08
-1.863275856237114e-08
5.689714831943009e-09
-1.166896160543727e-08
-6.963099735711298e-09
-5.26954725232407e-09
-6.39856586655812e-09
-1.299449098724119e-08
7.725894036422531e-09
-2.22463936084288e-08
9.252954574600871e-09
-2.163955085212161e-08
-6.056492499913965e-10
-2.154945127317489e-08
-8.876504042324487e-11
-1.729239573442115e-08
-4.255604821661157e-09
-1.001958821350636e-08
-7.271276342124583e-09
-5.930597711888558e-09
-4.087420793976197e-09
2.748301287694714e-10
-6.20386831994436e-09
1.112156241062825e-08
-1.084519829539385e-08
2.799241693802911e-08
-1.686933731465636e-08
4.752123657252054e-08
-1.952732532502374e-08
6.525444685118543e-08
-1.773175620148535e-08
7.891280749844542e-08
-1.365700012772513e-08
9.725886165978927e-08
-1.834481341073976e-08
1.348870342176653e-07
-3.762709533714426e-08
2.019505529519799e-07
-6.706260419609706e-08
2.912565253833123e-07
-8.930520414841072e-08
2.902266232146736e-07
1.030598402143081e-09
1.425950266271071e-07
1.476323191721457e-07
8.289541874545367e-08
2.658572244798729e-07
4.690513764986218e-09
1.098479952658114e-07
1.973690050159835e-07
-8.060493854716515e-08
2.388262959667556e-07
-1.329740256540428e-07
6.280595342549464e-08
-1.3621197569721e-07
4.451007681403506e-09
-1.215052774477011e-07
-1.905295961887392e-08
-9.501164525367921e-08
-3.398179447542664e-08
-9.408319181816125e-08
-1.235422105127462e-09
-1.145415648143024e-07
2.552668984157918e-08
-1.432117432001709e-07
3.606669876691515e-08
-1.68643882575472e-07
3.234731307904785e-08
-1.896163844308927e-07
2.656546820494907e-08
-2.210156960423331e-07
3.982811439836192e-08
-2.546456241222311e-07
4.226757418829645e-08
-2.440306874418058e-07
-1.458086969339837e-08
-2.648609657434303e-07
2.500309124566951e-08
-3.771921920624859e-07
1.437274346534191e-07
-4.604120679221142e-07
1.072657303107244e-07
-5.000624452601326e-07
5.148320116791687e-08
-5.113784593671161e-07
1.512799345311805e-08
-4.955398008402322e-07
-1.973704633972454e-08
-4.761210385314443e-07
-2.432666889011089e-08
-4.601766080311943e-07
-2.005585128822634e-08
-4.374915146524241e-07
-2.876461108879058e-08
-4.107622229166103e-07
-3.372884436529995e-08
-3.802902714092987e-07
-3.865853883927374e-08
-3.440921947759224e-07
-4.617115096450685e-08
-3.156885150877075e-07
-3.592811519007555e-08
-2.874863421698022e-07
-3.564429299345528e-08
-2.551400741402873e-07
-4.123016848507027e-08
-2.261636137607584e-07
-3.685676192994457e-08
-2.011503334114466e-07
-3.181215947287482e-08
-1.770105821404736e-07
-3.076780089181067e-08
-1.591880827273032e-07
-2.303507524229083e-08
-1.559930922072593e-07
-4.05968628916642e-09
-1.497585490544532e-07
-7.313022020664613e-09
-1.20073176038237e-07
-3.766232952932159e-08
-9.816630156211456e-08
-2.844765406715317e-08
-1.05858340128745e-07
9.793464956067587e-09
-1.067405744509207e-07
1.989806224197817e-09
-8.073006184672586e-08
-3.290438298405143e-08
-5.380335076079432e-08
-3.469596979947392e-08
-3.617750004916087e-08
-2.206385516730955e-08
-1.986931528232346e-08
-2.046526853018924e-08
-2.99966285485388e-09
-2.172784377296811e-08
-8.177694274833062e-09
5.936304059369107e-09
-4.647635101725421e-08
4.853583154386143e-08
-6.431334247801395e-08
2.352752999822546e-08
-3.749898221771898e-08
-3.377648042425428e-08
-1.739657272155737e-08
-2.649978517926115e-08
-4.604073969127541e-08
3.637138963046201e-08
-7.787589781799446e-08
4.108958985348873e-08
-7.647797391665591e-08
-2.001895927714323e-09
-7.647055242095518e-08
-9.431116578735226e-11
-6.008987859895564e-08
-2.063424207003097e-08
-3.356594974177747e-08
-3.379306266083011e-08
-1.929820614140455e-08
-1.835295911822463e-08
4.367296706608558e-09
-2.986717872532212e-08
4.463193922559473e-08
-5.11076911273211e-08
1.067403131770128e-07
-7.89755861589522e-08
1.784318326665565e-07
-9.121675855489075e-08
2.431216698097811e-07
-8.241955747119982e-08
2.922055490222655e-07
-6.273898906955811e-08
3.579420085588597e-07
-8.407954038210707e-08
4.898127758900088e-07
-1.694963656600122e-07
7.235701994424474e-07
-3.008187576412521e-07
1.038811143135521e-06
-4.045450895468858e-07
1.064351803235319e-06
-2.450910232678841e-08
5.825087234047182e-07
6.294763899587674e-07
3.898614769140805e-07
6.285579794748945e-07
7.78560385775026e-08
2.832534602686155e-07
5.426752735400221e-07
-1.460626482738136e-07
6.681441887350999e-07
-2.84020156743582e-07
2.007652340706284e-07
-2.92065538064097e-07
1.249814417801179e-08
-2.624257090423464e-07
-4.869100879785278e-08
-2.080008310294858e-07
-8.84048614369245e-08
-2.065300814476282e-07
-2.704331207477377e-09
-2.530158131693048e-07
7.20142532356926e-08
-3.164762468482889e-07
9.952897092710844e-08
-3.705401526263448e-07
8.641301420475123e-08
-4.151152441551499e-07
7.114240479498108e-08
-4.816589179569903e-07
1.063736290783759e-07
-5.558414513078998e-07
1.164518404179531e-07
-5.426148736593815e-07
-2.780587133886071e-08
-5.965597817942848e-07
7.894960509099651e-08
-8.272694295197354e-07
3.744384753791377e-07
-9.892819665727626e-07
2.692793978897335e-07
-1.062773959839402e-06
1.249760458817909e-07
-1.080712913643055e-06
3.306751550812565e-08
-1.044258978490547e-06
-5.619065872720698e-08
-1.000435288936079e-06
-6.815025500283199e-08
-9.652388663268451e-07
-5.525236083729833e-08
-9.167459603915143e-07
-7.725777607662198e-08
-8.585656680597596e-07
-9.190954768017732e-08
-7.941054594067073e-07
-1.031192781885759e-07
-7.1900541924373e-07
-1.212718469972239e-07
-6.580382437435785e-07
-9.68960095909669e-08
-5.973721756571974e-07
-9.631114093400544e-08
-5.300533306075558e-07
-1.085498392106039e-07
-4.695275077338824e-07
-9.738342891802236e-08
-4.170762105723146e-07
-8.426429984753323e-08
-3.672934332384858e-07
-8.05513986822489e-08
-3.326226025782871e-07
-5.770667473558396e-08
-3.257751360442273e-07
-1.090785590097126e-08
-3.082693992598298e-07
-2.481940076194965e-08
-2.4506596653342e-07
-1.008663391195718e-07
-2.032846889469353e-07
-7.022938116318827e-08
-2.194437634018884e-07
2.595220138930716e-08
-2.149214907680735e-07
-2.532730961533846e-09
-1.587117380362854e-07
-8.911429294704877e-08
-1.052528809003765e-07
-8.81548267884643e-08
-6.606706288225166e-08
-6.124952913877834e-08
-2.956521539935281e-08
-5.696681291432031e-08
3.520969771479587e-09
-5.481352058566544e-08
-1.245350689672427e-08
2.191144960832573e-08
-9.419798987520355e-08
1.302811465394818e-07
-1.252132871421891e-07
5.454381758651599e-08
-6.64108458360547e-08
-9.257774516713874e-08
-3.072650045363781e-08
-6.218272421125434e-08
-9.180467587667177e-08
9.745111360847532e-08
-1.545847103726779e-07
1.03871398786202e-07
-1.523165493731686e-07
-4.268035960610061e-09
-1.533544270495505e-07
9.458260922212661e-10
-1.175873079178682e-07
-5.639891850797651e-08
-6.267697865329667e-08
-8.870088086528641e-08
-3.465419308084165e-08
-4.637310742213396e-08
1.630282245467279e-08
-8.082155972230349e-08
1.019500254077607e-07
-1.367523574336108e-07
2.333639375911063e-07
-2.103869705248516e-07
3.848086857522237e-07
-2.426590552501661e-07
5.202837038867412e-07
-2.178921455229697e-07
6.220218652566179e-07
-1.644749698574476e-07
7.583238606365155e-07
-2.203794818925539e-07
1.026519325552961e-06
-4.376900881322012e-07
1.494584874399548e-06
-7.688828206842407e-07
2.127605121025155e-06
-1.037564119273825e-06
2.229743367526652e-06
-1.266462421895232e-07
1.33654804787485e-06
1.522672844444648e-06
1.024688872858938e-06
1.268925028413367e-06
3.014760018095558e-07
6.155230873499146e-07
1.196079235007791e-06
-2.040907009764284e-07
1.487759955824399e-06
-5.052511257222396e-07
5.019277687485283e-07
-5.270553494231452e-07
3.43044623977002e-08
-4.763292337728408e-07
-9.941499580005155e-08
-3.834079148734491e-07
-1.813240120569577e-07
-3.820007972155308e-07
-4.109238673455108e-09
-4.709506438707781e-07
1.609662183983467e-07
-5.889975715990439e-07
2.175780060146652e-07
-6.857514625757434e-07
1.831688835850054e-07
-7.656489237131675e-07
1.510420203977116e-07
-8.81757886409604e-07
2.224847553916482e-07
-1.012646758816849e-06
2.473425580456904e-07
-1.011429718295558e-06
-2.902130270520571e-08
-1.131503198843227e-06
1.990249585407703e-07
-1.526801223627615e-06
7.697380973119333e-07
-1.781737624146201e-06
5.242170830263027e-07
-1.883408164971936e-06
2.266475676809063e-07
-1.90346645381164e-06
5.312643910909481e-08
-1.837329660290489e-06
-1.223270796862755e-07
-1.753389682974158e-06
-1.520901118728926e-07
-1.687472020102154e-06
-1.211701221397962e-07
-1.600455798100122e-06
-1.642742881874138e-07
-1.492797893928742e-06
-1.995679202293031e-07
-1.379253702387077e-06
-2.166640686114383e-07
-1.250451660368884e-06
-2.500746512236347e-07
-1.140633544050569e-06
-2.067149585039483e-07
-1.03191337219776e-06
-2.050322205716197e-07
-9.150943418753212e-07
-2.253698375753802e-07
-8.098589516117639e-07
-2.026198118907195e-07
-7.181153458971434e-07
-1.76008900158652e-07
-6.331126820766416e-07
-1.655550325442732e-07
-5.779256412167474e-07
-1.128946165284655e-07
-5.653389355791163e-07
-2.34953628252321e-08
-5.257179093848465e-07
-6.444116265303877e-08
-4.122039041483365e-07
-2.143810264844516e-07
-3.463386093141128e-07
-1.360951432124429e-07
-3.751413546472716e-07
5.475460266902067e-08
-3.551018712247954e-07
-2.257250314254554e-08
-2.530837687180265e-07
-1.911325823612515e-07
-1.654957767737262e-07
-1.757428174615765e-07
-9.27168713710797e-08
-1.340282604363402e-07
-2.353844157581629e-08
-1.261448860835042e-07
2.891336164290684e-08
-1.072647147225874e-07
-1.033617821191251e-08
6.116166302884396e-08
-1.562677132883476e-07
2.762135986155858e-07
-1.968926194723426e-07
9.516990056467071e-08
-8.822883522440708e-08
-2.012401396379127e-07
-3.895103077447785e-08
-1.114589842224077e-07
-1.484281469118671e-07
2.069298918257263e-07
-2.506237009209657e-07
2.060690658614731e-07
-2.466790191682454e-07
-8.210288831165968e-09
-2.51324602901318e-07
5.594124826767323e-09
-1.857418484010248e-07
-1.219787830796866e-07
-9.137708007863209e-08
-1.830629366714719e-07
-4.677486874040679e-08
-9.097229911324479e-08
4.45556182009881e-08
-1.721489358258687e-07
1.968467083027249e-07
-2.890406423274078e-07
4.290496032833244e-07
-4.425869154921487e-07
6.96969719648132e-07
-5.105764000057497e-07
9.30974833853551e-07
-4.518943996353699e-07
1.105500667431982e-06
-3.389984378608177e-07
1.340650027704477e-06
-4.555264651838487e-07
1.79278846540851e-06
-8.898265833001242e-07
2.565696383553161e-06
-1.541789060491935e-06
3.615685766784443e-06
-2.087552158472052e-06
3.885179132742679e-06
-3.961383757841525e-07
2.555731821136812e-06
2.852121413392952e-06
2.087878856820629e-06
2.365302369984427e-06
7.96858232735491e-07
1.233441431115843e-06
2.327942340970458e-06
-2.141954490790671e-07
2.93539880998502e-06
-8.136412137227798e-07
1.101375985147522e-06
-8.684447328109845e-07
8.911045184696394e-08
-7.90532415521791e-07
-1.773247989060973e-07
-6.483974890281401e-07
-3.234563698535903e-07
-6.461479060795111e-07
-6.356184939619141e-09
-8.005795005664616e-07
3.154001893154401e-07
-9.97741029499085e-07
4.147417345668746e-07
-1.156596899546716e-06
3.420267507771197e-07
-1.294778598460906e-06
2.892261365321763e-07
-1.46002307520871e-06
3.877316681608733e-07
-1.644558537017793e-06
4.318798740533961e-07
-1.705729443674245e-06
3.215118677308106e-08
-1.965561828832027e-06
4.588594612385982e-07
-2.575906392006861e-06
1.380084421136284e-06
-2.921198299673759e-06
8.695102591153861e-07
-3.016031061675053e-06
3.214813926010352e-07
-3.028286227129643e-06
6.538228639665883e-08
-2.929343023526177e-06
-2.212698844565671e-07
-2.780031779538232e-06
-3.014012264268635e-07
-2.661957629367661e-06
-2.392443802030224e-07
-2.51891452422573e-06
-3.073176913656176e-07
-2.334625317770023e-06
-3.838576324346066e-07
-2.155594473371906e-06
-3.956955637610221e-07
-1.961547149793943e-06
-4.441228112712676e-07
-1.780351522597394e-06
-3.879115296130284e-07
-1.603658703065537e-06
-3.817260679773998e-07
-1.420921024093481e-06
-4.081086307510754e-07
-1.255497530246381e-06
-3.6804444911725e-07
-1.110403412475232e-06
-3.211041712733084e-07
-9.795595482976011e-07
-2.964000281815072e-07
-9.019523721073111e-07
-1.905027817177409e-07
-8.799009810270806e-07
-4.554754948070737e-08
-8.001255926708298e-07
-1.442173122941648e-07
-6.114125164822404e-07
-4.030948983911866e-07
-5.158924258544108e-07
-2.316156439714311e-07
-5.640614172712844e-07
1.029232901291435e-07
-5.128037467635757e-07
-7.383044330252672e-08
-3.458714285434004e-07
-3.580651209909572e-07
-2.196632561798601e-07
-3.019509867406589e-07
-9.601181288185535e-08
-2.576794946253621e-07
2.521796827421306e-08
-2.473742962033732e-07
9.26666199888065e-08
-1.74712693260498e-07
6.146503075144059e-09
1.476823512899793e-07
-2.267265478783998e-07
5.090875591560114e-07
-2.626537780169906e-07
1.310984992889402e-07
-7.906829308835608e-08
-3.848240794592253e-07
-2.92248120265386e-08
-1.613009739324745e-07
-2.057872595324665e-07
3.83493928651726e-07
-3.519765639354081e-07
3.522608563325058e-07
-3.447126118403083e-07
-1.54713284055402e-08
-3.586267057324699e-07
1.951147155386811e-08
-2.497496438786977e-07
-2.308525132416975e-07
-1.046025746568372e-07
-3.282074815846496e-07
-4.330134703231455e-08
-1.522704718489558e-07
1.038470832421089e-07
-3.192938894607861e-07
3.490022198356303e-07
-5.341929893721782e-07
7.199632940390724e-07
-8.135446044298727e-07
1.151610938312095e-06
-9.422210239414736e-07
1.506075672091781e-06
-8.063559095218956e-07
1.77326715842044e-06
-6.061874765604436e-07
2.142994267486182e-06
-8.252509549208564e-07
2.825132991297823e-06
-1.571963224111225e-06
3.967766232991957e-06
-2.684420493150382e-06
5.525326650435783e-06
-3.645111159399678e-06
6.102599974583199e-06
-9.734104051510059e-07
4.415453742795048e-06
4.53926897694153e-06
3.642651223904581e-06
4.169210086875586e-06
1.627001018580492e-06
2.329947172908999e-06
4.167207253194132e-06
-1.144155729478108e-07
5.379763349933174e-06
-1.21895731389799e-06
2.205920423280667e-06
-1.345324176034004e-06
2.154801824615873e-07
-1.237829638896405e-06
-2.848164462705661e-07
-1.039671279913627e-06
-5.216117972396783e-07
-1.028250688855737e-06
-1.777366623318255e-08
-1.26593508660956e-06
5.530872817705573e-07
-1.56015746132769e-06
7.089661617997668e-07
-1.817702315335416e-06
5.99573563733079e-07
-2.068686589025512e-06
5.402129237873572e-07
-2.249491043809251e-06
5.685386060544955e-07
-2.463741634316458e-06
6.461324410417443e-07
-2.700300559433599e-06
2.687117860952285e-07
-3.210129468171792e-06
9.686906547569922e-07
-4.065965597065247e-06
2.235922241790339e-06
-4.471711674059517e-06
1.27525732620085e-06
-4.507867663142151e-06
3.576383200350471e-07
-4.48338644103616e-06
4.090171284637872e-08
-4.335769955286127e-06
-3.688860092961588e-07
-4.088172710913715e-06
-5.489983481676375e-07
-3.872052997868117e-06
-4.55364204042953e-07
-3.646413562360749e-06
-5.329573981857743e-07
-3.371460297225737e-06
-6.588114025705279e-07
-3.117396628782097e-06
-6.497598687176889e-07
-2.851134901356279e-06
-7.103852847363749e-07
-2.568787766987427e-06
-6.702596845592779e-07
-2.295925683885873e-06
-6.545892241091842e-07
-2.030903226200264e-06
-6.731323194205747e-07
-1.788976238465979e-06
-6.099726674466644e-07
-1.575824294091354e-06
-5.342573763166574e-07
-1.385596529139792e-06
-4.866290842089885e-07
-1.277713450426608e-06
-2.98386790293311e-07
-1.240011802944025e-06
-8.324986336010364e-08
-1.102432146323992e-06
-2.817976533950775e-07
-8.118188804544675e-07
-6.93709078650105e-07
-6.850169679835338e-07
-3.58417875877522e-07
-7.57384376781924e-07
1.75290453482626e-07
-6.435891936350717e-07
-1.876258537030041e-07
-3.909442644660513e-07
-6.107103072840283e-07
-2.309467780429973e-07
-4.61948467318552e-07
-3.708667212989667e-08
-4.515393602243584e-07
1.655048364336921e-07
-4.499654932922162e-07
2.206641447899334e-07
-2.298714203529977e-07
4.268263734167273e-08
3.256643155915225e-07
-2.883102018891031e-07
8.400812625317625e-07
-2.83550786880911e-07
1.263406615706394e-07
2.168062908176242e-10
-6.685901831960802e-07
1.365114598829138e-08
-1.747340320447986e-07
-2.390182934153267e-07
6.361648244141455e-07
-4.181972766716539e-07
5.31442737373208e-07
-4.038010643606549e-07
-2.986404491533615e-08
-4.401278264570298e-07
5.584212601478873e-08
-2.816200322030267e-07
-3.893565852051281e-07
-7.948304725127334e-08
-5.303424259114025e-07
-1.689657950834463e-09
-2.300612127372209e-07
2.1402373959737e-07
-5.350038241192726e-07
5.837684615636483e-07
-9.039350929505106e-07
1.142074258962768e-06
-1.371846574471004e-06
1.793316811038871e-06
-1.593460404064356e-06
2.274998276032745e-06
-1.28803417829311e-06
2.645595399268253e-06
-9.767820082019874e-07
3.193645054100555e-06
-1.373297904754289e-06
4.146214689042205e-06
-2.524530667876357e-06
5.710372040465184e-06
-4.248575993725623e-06
7.838309111593608e-06
-5.773046841408827e-06
8.897580443791203e-06
-2.032680513844394e-06
7.023481322201102e-06
6.413369396989208e-06
5.666782706749477e-06
6.876374466732979e-06
2.756522267713131e-06
4.059496394379184e-06
6.984086941800779e-06
1.703072651793195e-07
9.268954105873092e-06
-1.708250460290715e-06
4.084480915620696e-06
-1.980316460096682e-06
4.875494419140581e-07
-1.851707725719394e-06
-4.134221110418432e-07
-1.604832892915741e-06
-7.684836426755382e-07
-1.568937975583923e-06
-5.366502322827107e-08
-1.879694418197733e-06
8.638469109207598e-07
-2.274158323350906e-06
1.103431875991488e-06
-2.697033193974351e-06
1.022450558854226e-06
-3.146072934095279e-06
9.892550306663207e-07
-3.324721163546924e-06
7.47189016844751e-07
-3.549117811607301e-06
8.705314056429724e-07
-4.083077615520597e-06
8.026736355040309e-07
-4.93952786383386e-06
1.825143241360686e-06
-5.844490457957086e-06
3.140886130962369e-06
-6.208536252365396e-06
1.639303807131753e-06
-6.24931030422737e-06
3.984130032960275e-07
-6.124174098062835e-06
-8.423397213112896e-08
-5.88233889592469e-06
-6.107209426285951e-07
-5.562737773982268e-06
-8.685993593427703e-07
-5.21994050783704e-06
-7.981615650149394e-07
-4.879278002707542e-06
-8.736201226703764e-07
-4.513911080077702e-06
-1.024178775538094e-06
-4.151817737416984e-06
-1.011853719937638e-06
-3.831752222082657e-06
-1.030451303510956e-06
-3.440568766638284e-06
-1.061444193393428e-06
-3.028868040419817e-06
-1.066290874169375e-06
-2.668580954730891e-06
-1.033420549173895e-06
-2.335281301826932e-06
-9.432734312186965e-07
-2.043920411452279e-06
-8.256194315161889e-07
-1.778718532321138e-06
-7.518322480271479e-07
-1.637975560871413e-06
-4.391304828263905e-07
-1.586187780610998e-06
-1.350381797358516e-07
-1.369123213639234e-06
-4.98862819603723e-07
-9.717217796641146e-07
-1.091111484769298e-06
-8.382636536210949e-07
-4.918762555579763e-07
-9.341516979534504e-07
2.711782877212521e-07
-6.765968118466328e-07
-4.451809635088213e-07
-2.858794064488334e-07
-1.001427956761995e-06
-1.199681370641545e-07
-6.278597278484585e-07
1.232051702632004e-07
-6.947124159570184e-07
4.169860524118571e-07
-7.4374614795223e-07
4.287085002632034e-07
-2.415934843705521e-07
1.087373880160624e-07
6.456358279769309e-07
-3.105635410311306e-07
1.259383125642018e-06
-2.02159933980045e-07
1.793892835423232e-08
1.917005075929586e-07
-1.062449423596831e-06
1.02526686244766e-07
-8.555915329382771e-08
-1.996039017462825e-07
9.382969742331473e-07
-3.551028533910162e-07
6.869447847633408e-07
-3.230842339426542e-07
-6.18787845582968e-08
-4.164889003579743e-07
1.492509051709901e-07
-2.439610138374256e-07
-5.618804674670826e-07
-2.604783390582568e-09
-7.716970507786053e-07
1.010457200263652e-07
-3.337095033193993e-07
3.998479867476214e-07
-8.338029742060824e-07
9.433044685589288e-07
-1.44738890439178e-06
1.763406426794061e-06
-2.191944481850341e-06
2.665259052149351e-06
-2.49531010569927e-06
3.263166227303691e-06
-1.8859387413551e-06
3.747434615105548e-06
-1.461047438386925e-06
4.525127583149322e-06
-2.150988231531298e-06
5.796209365602825e-06
-3.795610271677737e-06
7.803095442577266e-06
-6.255460342566584e-06
1.047445268636821e-05
-8.44440288737719e-06
1.214367802320031e-05
-3.701904835527201e-06
1.033351773267867e-05
8.223530813389101e-06
7.994407400750822e-06
1.030911868674665e-05
4.296885331575448e-06
6.379012581282746e-06
1.091419439925818e-05
7.434825935440057e-07
1.490448569180077e-05
-2.232063328586492e-06
7.060029565158536e-06
-2.76739158598005e-06
1.022881257146248e-06
-2.635824047036245e-06
-5.44986895895053e-07
-2.386488561459905e-06
-1.017816563177306e-06
-2.333977483716649e-06
-1.061723822816471e-07
-2.681472050368234e-06
1.211345208747863e-06
-3.175004345634169e-06
1.596965798567244e-06
-3.815285433634209e-06
1.662734291137231e-06
-4.521861010039445e-06
1.69583269222726e-06
-4.80573693904978e-06
1.031066634148745e-06
-5.125640437833344e-06
1.19043737371714e-06
-5.915627009125728e-06
1.592662687821983e-06
-6.892931707271716e-06
2.802450232478694e-06
-7.633788775901496e-06
3.881744092037611e-06
-7.900372532903343e-06
1.905888110595265e-06
-7.933911852911275e-06
4.31952713669389e-07
-7.739568779464489e-06
-2.785766547965777e-07
-7.435962072039301e-06
-9.143274675968362e-07
-7.05032767196746e-06
-1.254233655294159e-06
-6.555696410060633e-06
-1.292792889116139e-06
-6.101097675877585e-06
-1.328219018483377e-06
-5.607924981704431e-06
-1.51735181463553e-06
-5.098222580521878e-06
-1.521556460714082e-06
-4.753181562993501e-06
-1.37549263125615e-06
-4.245640143708398e-06
-1.568986596285315e-06
-3.639102880990577e-06
-1.672828780823608e-06
-3.178101170469072e-06
-1.494423049490929e-06
-2.749103354829073e-06
-1.372272042949964e-06
-2.36857228049868e-06
-1.206151353232428e-06
-2.057039990299795e-06
-1.063365465721246e-06
-1.947665134995804e-06
-5.485058454490126e-07
-1.89621397684243e-06
-1.864898437773055e-07
-1.512311384552652e-06
-8.827660512650765e-07
-1.013216152080737e-06
-1.590207505804882e-06
-9.663692803831623e-07
-5.387233507001727e-07
-1.080717955583872e-06
3.855267260378561e-07
-4.941554425751666e-07
-1.031743792226697e-06
1.672546505598056e-07
-1.662838202903344e-06
2.408645232822461e-07
-7.014695908157533e-07
4.241112498098158e-07
-8.779589085584077e-07
7.403252281718577e-07
-1.05995995169799e-06
6.949340437477112e-07
-1.96202049413295e-07
2.286584086828432e-07
1.111911862985225e-06
-2.293767929948806e-07
1.717419601558087e-06
3.923789405358949e-08
-2.506735129265196e-07
5.136526244063275e-07
-1.536863275131287e-06
2.597140798895261e-07
1.683803065033894e-07
1.148751881804777e-08
1.186525796643985e-06
4.589841194895649e-08
6.525364447408078e-07
1.137654114880545e-07
-1.297427364609256e-07
-1.234525824433854e-07
3.86471995105608e-07
-7.235387977743427e-08
-6.129753904862425e-07
1.401591944441545e-07
-9.842087478982373e-07
2.837390125486404e-07
-4.772871998880799e-07
7.011019237749001e-07
-1.251162971180078e-06
1.515254980692704e-06
-2.261538787166168e-06
2.673447227310765e-06
-3.350133179514767e-06
3.7587061118188e-06
-3.580566799041624e-06
4.47012757338589e-06
-2.597358322607435e-06
5.147906545238138e-06
-2.138823036342172e-06
6.199231306635522e-06
-3.20231061065362e-06
7.824311349379695e-06
-5.420688437702584e-06
1.023707719061524e-05
-8.668224795146306e-06
1.33551691103541e-05
-1.156249390929734e-05
1.560515515103719e-05
-5.951890105168436e-06
1.422304714177417e-05
9.605639710915584e-06
1.036797507849694e-05
1.441338177131964e-05
6.290553727191645e-06
9.413328763959183e-06
1.591424869854017e-05
1.784612101048833e-06
2.253320398718907e-05
-2.68899935798158e-06
1.153364367892392e-05
-3.628869141645156e-06
1.962754579205274e-06
-3.509483696827088e-06
-6.643703014910594e-07
-3.373988987801271e-06
-1.153309322806001e-06
-3.379173837782048e-06
-1.009842227606707e-07
-3.725409939912158e-06
1.557585398700265e-06
-4.355465561876803e-06
2.22702295952867e-06
-5.21917481989482e-06
2.526446738903645e-06
-6.140642853694785e-06
2.61730250804119e-06
-6.779112927688231e-06
1.669537965390922e-06
-7.40442639734852e-06
1.815752836010612e-06
-8.179312252339618e-06
2.367551014219783e-06
-8.948219959400308e-06
3.571360001838947e-06
-9.514415007553365e-06
4.44793983299784e-06
-9.693852902843614e-06
2.085326524024814e-06
-9.651612731428724e-06
3.897128262152698e-07
-9.371936776146594e-06
-5.582523095207201e-07
-9.000344554422881e-06
-1.285919558112251e-06
-8.485580011401059e-06
-1.76899810605131e-06
-7.829234641537951e-06
-1.949138293506261e-06
-7.267418394614066e-06
-1.890035379138527e-06
-6.642886788496593e-06
-2.141883652818765e-06
-6.030295681705727e-06
-2.134147792169484e-06
-5.574997956187619e-06
-1.830790580537445e-06
-4.903129222132502e-06
-2.240856064464618e-06
-4.115769582148424e-06
-2.460188846001073e-06
-3.53493944999323e-06
-2.075253631760176e-06
-3.007179993858091e-06
-1.900032000684216e-06
-2.505587775252862e-06
-1.707744097177079e-06
-2.191717942946863e-06
-1.377235800628442e-06
-2.190811926544775e-06
-5.494122360014367e-07
-2.119276590456656e-06
-2.580257728122921e-07
-1.438812519156427e-06
-1.563230936256125e-06
-8.606650858026359e-07
-2.168355401971372e-06
-1.029444083097281e-06
-3.699445694330295e-07
-1.095303291667398e-06
4.51385533150425e-07
-1.548130724721988e-07
-1.972234483109245e-06
7.598211715852667e-07
-2.577472518838687e-06
8.228829609366384e-07
-7.645313714670875e-07
9.404029556040115e-07
-9.954787214135984e-07
1.17079656498908e-06
-1.290353413558608e-06
1.051449257736982e-06
-7.685453985981557e-08
4.707386503261156e-07
1.69262293755161e-06
1.327680655033913e-07
2.055391983747328e-06
5.717120161730511e-07
-6.896152902045789e-07
9.870154990405454e-07
-1.952166082000865e-06
5.558846004577476e-07
5.995120941316264e-07
4.603307209994596e-07
1.282083110541395e-06
8.767067916413418e-07
2.36162009216421e-07
9.336067394874361e-07
-1.86641066864281e-07
5.112810441494009e-07
8.087994148652753e-07
3.353226402031077e-07
-4.370141588377215e-07
3.990902424436361e-07
-1.047975041345016e-06
6.081782354689327e-07
-6.863727689431418e-07
1.233972488743273e-06
-1.876954150960681e-06
2.430129218180298e-06
-3.457691887788698e-06
3.874347798109934e-06
-4.794349310216461e-06
5.03585404720576e-06
-4.742071564309508e-06
5.939515196252534e-06
-3.501018084338617e-06
6.932152081362374e-06
-3.131456721543149e-06
8.254976784679715e-06
-4.525133427255105e-06
1.021100228568743e-05
-7.376712545287099e-06
1.301311223026101e-05
-1.14703337523319e-05
1.658146067232528e-05
-1.513084171303771e-05
1.932373407856767e-05
-8.694162935423204e-06
1.860534369947531e-05
1.032403076947069e-05
1.256627052296635e-05
1.943877314045227e-05
8.300300419817644e-06
1.364624405492908e-05
2.170677903355562e-05
3.700195575376648e-06
3.247925399213504e-05
-2.840086002250542e-06
1.807392771496949e-05
-4.429849122569024e-06
3.552520659141596e-06
-4.400332167242686e-06
-6.938858674399022e-07
-4.494189763480313e-06
-1.059450260736132e-06
-4.676069423852637e-06
8.089799078384403e-08
-5.04447765057168e-06
1.925997769473181e-06
-5.883973986561757e-06
3.066520776636563e-06
-6.942263418300103e-06
3.584739205931179e-06
-7.933814666126852e-06
3.608855193680655e-06
-8.94477532918046e-06
2.680499588382342e-06
-9.903663734450675e-06
2.774642509233123e-06
-1.061959094622538e-05
3.083480061816368e-06
-1.114945852972654e-05
4.101229099187141e-06
-1.158075858889885e-05
4.879240481455407e-06
-1.166448766984706e-05
2.169056108094814e-06
-1.148087523917449e-05
2.061006374123966e-07