1.0013360856295 	4.411186545401779e-06 	-7.453610719382072e-08 	-1.691598154600832e-19 	0.0005782727661089946 	-7.065742403570384e-08 	1.344096503145515e-19
1.0042908759525 	2.374493682892008e-05 	1.444905580839687e-07 	-8.289957352982764e-19 	0.001747540166476048 	-1.892831719174164e-07 	-7.377983279240705e-20
1.007870686155 	6.130292310287171e-05 	6.78321180224483e-07 	-1.288357896358026e-18 	0.002652962033039459 	-9.207020666500694e-07 	-5.334692375862734e-19
1.012207725227 	0.0001265540338037351 	2.08370640033788e-06 	-1.851113344542819e-18 	0.003245247062606163 	-2.185630734110903e-06 	-9.886213801608261e-19
1.01746216802 	0.0002213954899001638 	6.459125668584371e-06 	-1.627106938999985e-18 	0.003672091147097788 	-4.103783626724188e-06 	-5.760191753863659e-19
1.023828070795 	0.0003244267348116904 	1.674128778570057e-05 	-8.480117271299401e-19 	0.004014664502746491 	-6.839313604599073e-06 	-3.819883111091737e-19
1.03154053808 	0.0004285749474523315 	3.512079117105011e-05 	-3.73748169468132e-19 	0.004311128110141043 	-1.056863092326808e-05 	-1.987431781857089e-19
1.040884405515 	0.0005458054510322474 	6.426355446367548e-05 	1.74880290017601e-19 	0.004581935687530783 	-1.551537753368813e-05 	-1.053362080251129e-20
1.052204759335 	0.000692208532244528 	0.0001033466195003937 	8.30897561428575e-19 	0.004839872379375788 	-2.196418648251147e-05 	4.416398030523934e-19
1.065919681105 	0.0008991707992549249 	0.0001448755954243813 	2.930386114267624e-18 	0.005094272961121902 	-3.026746179201396e-05 	2.862130549917791e-19
1.08253568818 	0.00129637561169189 	0.0001754583950381245 	3.703578034430061e-18 	0.005353091211535157 	-4.085332804660682e-05 	2.467195561453192e-19
1.102666440305 	0.001983063100934498 	0.000151653207526273 	8.906653279574214e-19 	0.005624140106837298 	-5.423348531579069e-05 	1.03699279451873e-19
1.1270554033 	0.00258389557288542 	9.706322398679667e-05 	-1.07456101262805e-18 	0.005916042108679955 	-7.100695486519449e-05 	4.653997311127968e-20
1.15660330655 	0.003140700695003365 	3.849353821750701e-05 	-1.807814448111103e-18 	0.00623915953686998 	-9.185387596609051e-05 	4.846041573039468e-20
1.19240140855 	0.003730589051511238 	-2.189739535587759e-05 	-7.956235701162767e-19 	0.006606683083427354 	-0.0001175089325116481 	2.876208904905981e-20
1.23577179925 	0.004383973039414377 	-8.349146816608418e-05 	-1.003285769052878e-18 	0.007036030933153896 	-0.0001486957339662361 	-8.486656283413817e-20
1.2883162272 	0.005122926465352147 	-0.0001476169485858139 	-1.145090496141125e-18 	0.007550704432346042 	-0.0001859892657925977 	-3.288555380284089e-19
1.317227605626489 	0.005972179957106999 	-0.0002156439719586456 	-8.754757868262282e-19 	0.00818271901368867 	-0.0002295508270274917 	3.275577735981078e-20
1.352101541076489 	0.00609762999318286 	-0.0001675499668366106 	-1.029923518352889e-18 	0.008260905378004425 	-0.0001707219345355938 	-7.600035655658672e-20
1.4290999277 	0.007071662449250287 	-0.0002230712226891178 	-1.515196807700654e-19 	0.00904540043105044 	-0.0002080670961919936 	-4.318310149929803e-19
1.52253860195 	0.008232361749672871 	-0.0002829295690780864 	6.567314858794983e-19 	0.01004457362600562 	-0.0002472876132907269 	-4.361589802440317e-20
1.63574214035 	0.009641750078045054 	-0.0003429455669939362 	3.351419793594847e-20 	0.01133271407110226 	-0.0002834285511479257 	-2.720879914152773e-19
1.77289135805 	0.01137739793248994 	-0.0003949351990991049 	2.498028844684377e-20 	0.01300006035036484 	-0.0003072993028495351 	-2.573557216702564e-20
1.93905142865 	0.01351771289525825 	-0.0004245975053712282 	-1.212718798988569e-19 	0.01514038390179739 	-0.0003029789997749017 	1.32827092914523e-19
2.14035895 	0.01610415077921097 	-0.0004138980911874799 	-1.037326431756095e-19 	0.01780850060318181 	-0.0002505188963632443 	8.066128178117574e-20
2.38424858 	0.0190740661734397 	-0.0003427968906510817 	6.134337757678995e-20 	0.02091276231555155 	-0.0001322824892279748 	9.19288629110734e-21
2.651465706 	0.02188457429208131 	-0.0002285469905996665 	-3.085194635076631e-19 	0.02374878386321549 	4.061936193993944e-06 	2.761633388033736e-19
2.895355336 	0.02394614005045379 	-0.0001366798291247923 	-1.401147555742683e-19 	0.02560034012742994 	8.233706194969736e-05 	-4.456211398599837e-19
3.096662856999999 	0.02530450681149705 	-7.906366401238079e-05 	-8.618193522627647e-19 	0.02658502842328313 	0.0001161835878330538 	-3.81425252497905e-19
3.262822927499999 	0.02618757012575865 	-4.410876060286006e-05 	-1.407782870679604e-19 	0.02700607819706817 	0.0001282785124306532 	3.730760817239139e-19
3.3999721455 	0.0267250238003933 	-2.236793973481656e-05 	-2.488977779084174e-21 	0.02703354603943061 	0.0001321445141808628 	4.805778753547067e-19
3.513175684 	0.02696501062262221 	-8.498299026452904e-06 	4.969922486580018e-19 	0.02674366263692704 	0.0001332646121132801 	-4.11920375739869e-21
3.606614358 	0.02691880745689799 	1.111083702760631e-06 	-6.233140632401796e-19 	0.02615990635334813 	0.0001338111424781456 	-3.304877369810399e-19
3.6837390305 	0.0266002474742071 	9.279495650586553e-06 	-1.669326990944742e-19 	0.02530115240754582 	0.0001333584055224459 	3.508435540117771e-19
3.7473980585 	0.02605900981428042 	1.635934471853841e-05 	-1.851828005241423e-19 	0.02422198496839127 	0.0001302155717635642 	4.313890545057267e-19
3.7999424865 	0.02535548180177359 	2.223515102618822e-05 	-8.79462517379895e-19 	0.02301046376948545 	0.0001230662768494488 	6.198776289654672e-19
3.843312877 	0.02454104687020361 	2.594932333643813e-05 	-6.980080158764295e-19 	0.02175121442445813 	0.0001120655244317135 	5.302946408549603e-21
3.879110979 	0.0236552935363594 	2.67120214495276e-05 	-9.965912924836761e-19 	0.02049970149462762 	9.843019244756113e-05 	-2.752568174572317e-19
3.9086588825 	0.02272531390680322 	2.409505895154658e-05 	-3.023138006346752e-19 	0.01928132615243363 	8.363440190391398e-05 	1.600616499736258e-20
3.933047845500001 	0.02176187561177298 	1.760709146659794e-05 	-5.008329371228734e-19 	0.01810107093563743 	6.892819842671686e-05 	1.190459487849837e-19
3.953178597500001 	0.02075196520016809 	8.620719295671689e-06 	-4.266686549546784e-19 	0.01695260845714452 	5.518912413799622e-05 	1.433438574168731e-19
3.969794604500001 	0.01964165092158456 	-8.278533844755927e-07 	4.632352086783084e-20 	0.01582403217770172 	4.294025271844752e-05 	1.154605822307897e-19
3.983509526000001 	0.01832164403265107 	-8.49713849714759e-06 	4.757210096289495e-19 	0.01470065222788918 	3.242504294284637e-05 	8.484766949866566e-20
3.99482988 	0.01662487731404677 	-1.197504380351819e-05 	4.813206896150128e-19 	0.01356570031693609 	2.368845477332287e-05 	4.642322953251648e-19
4.004173747500001 	0.01440021147182185 	-1.108296377094875e-05 	-6.811012058554532e-19 	0.01239934733082677 	1.664634739212977e-05 	8.986983854390779e-19
4.011886215000001 	0.01171870681223143 	-7.078220430907517e-06 	-6.235560508427562e-19 	0.01117571869006183 	1.114020993479053e-05 	9.577545691291735e-19
4.018252117999999 	0.008926282347660503 	-3.313654713790923e-06 	-5.192673202851801e-19 	0.009856278341008948 	6.98022303525423e-06 	7.94235377192143e-19
4.0235065605 	0.006352996881341711 	-1.221404086602575e-06 	-3.785164552648762e-19 	0.008374541337038768 	3.974164263799035e-06 	6.022214996074817e-19
4.027843599500001 	0.004131970434362822 	-3.428588922784447e-07 	-6.376555367327466e-19 	0.006597505337402278 	1.915029185546223e-06 	3.691151579549975e-19
4.0314234095 	0.002264670769811118 	-5.051739598626448e-08 	-6.221248726594084e-19 	0.004269172459737268 	5.876383009874603e-07 	5.4134655813066e-20
4.034378199999999 	0.00070847311224047 	6.496659789379359e-09 	-1.991422748463656e-19 	0.001437335861261465 	1.100779755129515e-08 	-7.176063902827148e-20
