# wallShearStress  FACE_DATA 70
# x  y  z  wallShearStress_x  wallShearStress_y  wallShearStress_z
0.06862887394726257 0.9996332753499999 0.05000000000000001 -1.97258628620159e-06 1.35106383829853e-08 -1.705279100125334e-20
0.2050891100472626 0.9897687813999998 0.05000000000000001 -1.841370184375595e-06 2.567857280285774e-07 -2.086251476596509e-20
0.3357535521500003 0.9531906672999999 0.05 2.5822548269134e-07 -7.932490864345022e-08 -2.157719406387394e-20
0.4550754478500003 0.8872002802000003 0.05000000000000001 1.349349728630724e-06 -8.989758581329869e-07 -3.091859597749411e-21
0.5646509933999312 0.8047925419999998 0.05 1.139717189039412e-06 -9.126298699874148e-07 -1.193953769741136e-21
0.6698768430499313 0.7166546049999999 0.05 1.158069824755175e-06 -9.57688264467772e-07 -1.020859168739372e-21
0.7748806658983527 0.6282411408999999 0.05000000000000001 7.488686306347816e-07 -6.048334587225256e-07 5.963422254830716e-22
0.8813962787483527 0.5416604327 0.05000000000000003 5.804491049770149e-07 -4.575064098068152e-07 -3.121454836957664e-21
0.9892039943000002 0.4566865985500001 0.05 5.990738862584882e-07 -4.648345675403295e-07 4.749044124321983e-22
1.097810342 0.37273234035 0.05000000000000001 7.192859074142567e-07 -5.533132468120147e-07 1.794129427117075e-21
1.207539539499943 0.2902647904 0.05000000000000001 8.032730179092393e-07 -5.894159824676253e-07 2.929410695486362e-21
1.319917118999943 0.2115142826 0.05 8.480956777435816e-07 -5.612779188641463e-07 1.697127221612729e-21
1.4369705695 0.1400891262 0.05000000000000001 8.648888574195743e-07 -4.774246167681092e-07 2.560196937455882e-21
1.5601666065 0.08016485452000001 0.05 9.717607415041377e-07 -4.052426654902184e-07 2.575892211945036e-21
1.6895415655 0.03544079804500001 0.04999999999999999 9.943758791637899e-07 -2.707457252106059e-07 2.341626531448726e-21
1.8237462275 0.009035925348399993 0.05000000000000001 7.752033192418155e-07 -9.535160480431891e-08 1.396838054949692e-21
1.960447715997511 0.00039256337339999 0.05 1.128198890131974e-06 -1.133599740748726e-08 9.55542796802993e-22
2.097715600997511 -8.721051224930279e-18 0.05000000000000001 1.61234163850336e-06 -5.035010075825131e-09 1.661750127529831e-21
2.234989012999999 -7.609743998132634e-18 0.05 1.805467915042296e-06 -3.779619400322916e-09 3.11010202734038e-21
2.37226249499997 -7.772374324005461e-18 0.04999999999999995 1.945490213080093e-06 -2.858611744165585e-09 5.368791326429437e-21
2.509535757499971 -8.016319812814697e-18 0.05000000000000005 1.909810355175514e-06 -1.702141860811524e-09 4.930929325919288e-21
2.646809098 -7.941780913456318e-18 0.05 1.84246447021001e-06 -1.384842174326131e-09 1.333106496738166e-21
2.784082665499999 -7.643625316022806e-18 0.05 1.771037348826787e-06 -1.36075142046114e-09 2.110055252084423e-22
2.921356055999736 -9.161508357502512e-18 0.05000000000000001 1.725251467372166e-06 -8.631830087210466e-10 1.992331742077182e-22
3.058629342499737 -9.703609443745265e-18 0.05 1.605267249341539e-06 -5.544415166337642e-10 3.142924651431663e-22
3.195902776500001 -8.592302216947621e-18 0.05 1.525817415016935e-06 -2.083329358826083e-10 -1.908548547859968e-22
3.333176401000001 -8.836247705756863e-18 0.05000000000000001 1.373872540541606e-06 3.312499995466488e-10 8.967031080958288e-23
3.470449797500001 -8.944667923005413e-18 0.05000000000000001 1.254555373922111e-06 1.6522112851599e-10 4.608815386198546e-22
3.60772309 -8.782037597132586e-18 0.05000000000000001 1.15855424586298e-06 2.7167996309757e-10 -6.012828512184075e-22
3.744997912499997 -8.348356728138384e-18 0.05 1.042457991787054e-06 6.771681646688496e-10 -6.804371891786798e-22
3.882271560999998 -8.673617379884035e-18 0.05 9.158169232810286e-07 6.969330245606972e-10 -2.016384125945221e-21
4.0195445235 -8.456776945386935e-18 0.05 8.189951159889847e-07 6.596444839577691e-10 -1.226544241898146e-21
4.156817502 -8.023096076392734e-18 0.05000000000000001 7.26477513601009e-07 7.619871603998821e-10 -5.847225271776266e-22
4.294089609 -9.324138683375338e-18 0.05 6.296883049395561e-07 6.900335943296539e-10 -1.074518460593277e-21
4.431363248000002 -8.673617379884039e-18 0.05 5.874612960349705e-07 9.693889852633062e-11 -1.917289041657044e-21
4.568637582 -8.565461860431504e-18 0.05000000000000011 6.071014218751658e-07 1.370349936747477e-10 -4.756984687014337e-21
4.7059112215 -9.435364697261667e-18 0.0499999999999999 5.445891185737649e-07 1.261398302166157e-09 -2.498116962397318e-21
4.843183328499999 -9.551990546186743e-18 0.05 3.86247233030055e-07 1.179160155521027e-09 2.374488235557297e-22
4.980456308999999 -8.482187933804565e-18 0.05 3.736948046389711e-07 -1.484496574445285e-10 1.265095637382108e-21
5.117729270000002 -7.416620486158654e-18 0.05 4.438737205333813e-07 5.171365953401633e-11 4.089767897669859e-22
5.255002916000002 2.333067549917245e-17 0.04999999999999995 3.893401464585803e-07 1.377054569301459e-09 3.304132696334824e-21
5.392277657000001 2.282923199439804e-17 0.05000000000000005 2.543750113460336e-07 1.534623526155632e-09 2.919744507038789e-21
5.529552367999999 -8.443224418230866e-18 0.05 1.869644381943485e-07 9.817279264160487e-10 -6.022499556003402e-22
5.666826351999998 -8.131516293641283e-18 0.05000000000000001 1.176936266763778e-07 1.050492147277086e-09 -3.498965345675792e-22
5.8040976325 -8.727827488508309e-18 0.05000000000000001 6.97524566296986e-08 1.198802497058274e-09 -1.253736795787712e-21
5.941369805500264 -8.890457814381136e-18 0.05000000000000001 -1.651161840184255e-08 2.784494982385119e-10 6.330480146680535e-22
6.078643373000265 -8.565197162635485e-18 0.05 9.856241370413882e-08 -1.150744027518797e-09 7.396604502734083e-22
6.215917482000002 -9.161508357502512e-18 0.05 2.702161653621033e-07 -2.834294732953381e-10 -2.21875954453339e-22
6.353191843 -9.324138683375337e-18 0.05 2.438671880381595e-07 1.895021185440445e-09 4.939007976594861e-22
6.490465730500029 -8.131516293641282e-18 0.05 7.14934813364823e-08 1.667280720252968e-09 9.3542275372613e-23
6.62773816600003 -8.023096076392734e-18 0.05 9.053403908055751e-08 -6.596541630554912e-10 -6.495988295104052e-22
6.765009931999999 -8.890457814381139e-18 0.05000000000000001 2.789744649677752e-07 -4.757508582864372e-10 4.404177962011625e-21
6.902284109002488 -8.673617379884037e-18 0.04999999999999984 3.302782291230915e-07 1.214300658496997e-09 7.810335625118286e-21
7.039553203502489 0.0003925829196499917 0.05000000000000016 2.814591708497162e-07 2.579156298946419e-09 5.049543791472365e-21
7.176254749999999 0.009035457589650029 0.05 3.212155649475025e-07 3.888085545634787e-08 6.829500900034306e-21
7.310460605499999 0.03543897866999999 0.05 1.67367733325569e-07 4.453446650945117e-08 4.179406386178648e-21
7.439835137499999 0.08016414600000009 0.05000000000000001 1.297554458990995e-07 5.217074192255383e-08 -4.364950553501052e-21
7.563027664500001 0.1400922645999999 0.05 6.218437768862723e-08 3.201530775678227e-08 -2.138098995301962e-22
7.680083070000057 0.21151548455 0.05 -7.815475998769378e-08 -5.260712951982581e-08 -1.13168173731602e-20
7.792465348500057 0.2902613516 0.05000000000000001 -3.513714015103654e-07 -2.505219466730335e-07 -4.645278243049384e-21
7.902195523500001 0.3727282985999999 0.05000000000000001 -8.122995845377309e-07 -6.021579614925213e-07 1.296220386696561e-21
8.010800289500001 0.4566834874999998 0.05 -1.31839642310005e-06 -9.905175597117181e-07 5.448484639091921e-21
8.118606309001649 0.5416578558499998 0.05000000000000016 -1.855193796810578e-06 -1.426460502226043e-06 1.202250332401535e-20
8.225122803501648 0.6282378773 0.04999999999999985 -2.349036621197957e-06 -1.863450120599893e-06 1.499584572446799e-20
8.330128973000068 0.7166500741000003 0.05000000000000001 -3.421787987210897e-06 -2.781700479765629e-06 1.765509264059696e-20
8.435356350000069 0.8047870896499998 0.05 -5.316879601717912e-06 -4.097547632030924e-06 6.226533027510063e-21
8.544929552000001 0.88719621 0.05000000000000001 -8.394848390916856e-06 -5.435673543872045e-06 8.936149554019022e-21
8.664246120000001 0.9531910069500001 0.05000000000000001 -1.089251535629815e-05 -4.482925343386239e-06 2.88513170804969e-21
8.794909179002738 0.9897705068000002 0.05000000000000001 -7.43584672011396e-06 -1.052709962687978e-06 6.41407119667025e-22
8.931371114502738 0.9996333943 0.05 -1.872422525847707e-06 -3.064736143009336e-08 -8.818048341331406e-21
